   * xtb version 6.5.0 (97a52f5) compiled by 'conda@d2599ee0d4f4' on 2022-05-15
          program call               : /home/liuchw/anaconda3/envs/xtbenv/bin/xtb --gfn 2 --chrg 0 --uhf 0 1_7_Index_0-opt-2-3-016_preQMOPTprefit_xyzformat.xyz --opt --input xtb-opt-2-3-016_constr.txt

   ID    Z sym.   atoms
    1    1 H      1, 21, 23-34
    2    7 N      2, 8
    3    6 C      3-7, 9-20
    4    8 O      22
constraining angle 1 2 3 4 to   15.8569624°, actual value:   15.8569624°
constraining angle 5 2 3 4 to  153.3073742°, actual value:  153.3073742°
constraining angle 1 2 5 17 to  332.1091495°, actual value:  -27.8908505°
constraining angle 3 2 5 17 to  195.1405286°, actual value: -164.8594714°
constraining angle 2 3 4 12 to  262.1757029°, actual value:  -97.8242971°
constraining angle 2 3 6 7 to  183.3933323°, actual value: -176.6066677°

          :  Hamiltonian                  GFN2-xTB          :
 * total energy  :   -53.3801624 Eh     change       -0.2336137E-08 Eh
 * total energy  :   -53.3981873 Eh     change       -0.1802489E-01 Eh
 * total energy  :   -53.4034946 Eh     change       -0.5307306E-02 Eh
 * total energy  :   -53.4042331 Eh     change       -0.7384947E-03 Eh
 * total energy  :   -53.4053831 Eh     change       -0.1149987E-02 Eh
 * total energy  :   -53.4061513 Eh     change       -0.7681623E-03 Eh
 * total energy  :   -53.4066606 Eh     change       -0.5092914E-03 Eh
 * total energy  :   -53.4071918 Eh     change       -0.5312466E-03 Eh
 * total energy  :   -53.4075376 Eh     change       -0.3458369E-03 Eh
 * total energy  :   -53.4078220 Eh     change       -0.2843340E-03 Eh
 * total energy  :   -53.4083790 Eh     change       -0.7115114E-05 Eh
 * total energy  :   -53.4083866 Eh     change       -0.7580582E-05 Eh
 * total energy  :   -53.4083913 Eh     change       -0.4663215E-05 Eh
 * total energy  :   -53.4083935 Eh     change       -0.2188085E-05 Eh
 * total energy  :   -53.4083953 Eh     change       -0.1833762E-05 Eh
 * total energy  :   -53.4083973 Eh     change       -0.2020991E-05 Eh
 * total energy  :   -53.4083993 Eh     change       -0.1968952E-05 Eh
 * total energy  :   -53.4084002 Eh     change       -0.9384657E-06 Eh
 * total energy  :   -53.4084018 Eh     change       -0.1523867E-05 Eh
   *** GEOMETRY OPTIMIZATION CONVERGED AFTER 27 ITERATIONS ***

 final structure:
================
34
 xtb: 6.5.0 (97a52f5)
H            0.68797856247637       -1.58324050370346       -0.64825041988156
N            0.76576096048550       -0.97880042076277        0.16688157216150
C           -0.48005817661253       -0.44794193529318        0.39052368414101
C           -1.52236374541544       -1.21602554296104       -0.35565437101393
C            2.04414520598065       -0.41103525076356        0.20738551416543
C           -0.89202310147950        0.79207449604054        0.82079034570527
C           -2.28986477443030        1.09077152468826        1.05268368841024
N           -1.18662477790425        3.01791221251745        1.12703599901320
C           -0.21543157648649        2.10024946342867        0.79250041677658
C           -2.41593368419125        2.41168311045046        1.27123639587480
C           -2.01493818307912       -2.43362928743560        0.09874237852186
C           -1.95612498183111       -0.71540324321648       -1.57804903459169
C           -2.94847903001976       -3.13117218824130       -0.64834449779941
C           -2.88211799204078       -1.41953750602366       -2.32565350659052
C           -3.38249701479451       -2.62516496529924       -1.86159528150314
C            2.39972582035122        0.52192319901665        1.18617831120211
C            3.07542139792045       -1.14158080667536       -0.38792047290648
C            3.71817750107283        0.91169484503368        1.32802057939583
C            4.39147862997790       -0.74818626282056       -0.25142039532245
C            4.71688140586686        0.30672984661273        0.58527965667812
H           -1.01478918247999        4.00873895994572        1.15008103109308
O            0.89282583157664        2.42099252804356        0.39230824381323
H           -1.67297135159628       -2.82411916491408        1.04607425499120
H           -1.56806430503871        0.22860722257094       -1.93170758007058
H           -3.33620724839223       -4.07071922305361       -0.28325618938914
H           -3.21581113724739       -1.02418032498720       -3.27353675878865
H           -4.11000999909195       -3.16872666630396       -2.44575463976604
H            1.65816010834822        0.90495272457478        1.86211261189200
H            2.82898364164156       -1.97132837869097       -1.03906810169062
H            3.96885371720150        1.66944662650781        2.05468148471839
H            5.16758880933455       -1.29189645003197       -0.76982212897938
H           -3.06592801731477        0.35423951986564        1.12213316075033
H           -3.28764078530670        2.99019070698374        1.51076667586089
H            5.74529146251958        0.61547811489833        0.69667535312858

          :  Hamiltonian                  GFN2-xTB          :
         :: total energy             -53.408401759391 Eh    ::
         :: gradient norm              0.000524426579 Eh/a0 ::
         :: HOMO-LUMO gap              2.113774691010 eV    ::
         :: SCC energy               -54.327154091845 Eh    ::
         :: -> dispersion             -0.039039383333 Eh    ::
         :: repulsion energy           0.918363407095 Eh    ::

    * Orbital Energies and Occupations

         #    Occupation            Energy/Eh            Energy/eV
      -------------------------------------------------------------
         1        2.0000           -0.6808213             -18.5261
       ...           ...                  ...                  ...
        37        2.0000           -0.4541072             -12.3569
        38        2.0000           -0.4503848             -12.2556
        39        2.0000           -0.4375812             -11.9072
        40        2.0000           -0.4354616             -11.8495
        41        2.0000           -0.4271432             -11.6232
        42        2.0000           -0.4176181             -11.3640
        43        2.0000           -0.4162180             -11.3259
        44        2.0000           -0.4150169             -11.2932
        45        2.0000           -0.4095418             -11.1442
        46        2.0000           -0.3947607             -10.7420
        47        2.0000           -0.3846257             -10.4662
        48        2.0000           -0.3687480             -10.0341
        49        2.0000           -0.3470313              -9.4432 (HOMO)
        50                         -0.2693516              -7.3294 (LUMO)
        51                         -0.2358351              -6.4174
        52                         -0.2348250              -6.3899
        53                         -0.2130050              -5.7962
        54                         -0.2060276              -5.6063
        55                         -0.1665983              -4.5334
        56                         -0.1306076              -3.5540
        57                         -0.1057537              -2.8777
        58                         -0.0841106              -2.2888
        59                          0.0348764               0.9490
        60                          0.0432677               1.1774
       ...                                ...                  ...
        94                          0.7420014              20.1909
      -------------------------------------------------------------
                  HL-Gap            0.0776798 Eh            2.1138 eV

     #   Z          covCN         q      C6AA      α(0)
     1   1 H        0.860     0.179     1.221     1.731
     2   7 N        2.702    -0.129    23.808     7.247
     3   6 C        2.886     0.073    26.376     8.420
     4   6 C        2.995     0.004    27.924     8.668
     5   6 C        2.900     0.069    26.445     8.432
     6   6 C        3.066    -0.061    29.438     8.897
     7   6 C        2.997    -0.075    29.864     8.964
     8   7 N        2.779    -0.152    24.289     7.320
     9   6 C        2.860     0.263    22.581     7.789
    10   6 C        2.964     0.006    27.884     8.661
    11   6 C        2.922    -0.034    28.841     8.807
    12   6 C        2.925    -0.030    28.758     8.794
    13   6 C        2.919    -0.028    28.711     8.787
    14   6 C        2.920    -0.027    28.679     8.782
    15   6 C        2.920    -0.029    28.727     8.789
    16   6 C        2.925    -0.023    28.578     8.767
    17   6 C        2.931    -0.053    29.307     8.878
    18   6 C        2.920    -0.024    28.613     8.772
    19   6 C        2.919    -0.031    28.765     8.795
    20   6 C        2.920    -0.034    28.854     8.809
    21   1 H        0.860     0.170     1.275     1.769
    22   8 O        0.857    -0.454    22.796     6.401
    23   1 H        0.926     0.038     2.477     2.461
    24   1 H        0.926     0.037     2.492     2.468
    25   1 H        0.926     0.036     2.502     2.473
    26   1 H        0.926     0.037     2.484     2.465
    27   1 H        0.926     0.036     2.508     2.477
    28   1 H        0.926     0.054     2.265     2.353
    29   1 H        0.925     0.021     2.712     2.575
    30   1 H        0.926     0.039     2.469     2.457
    31   1 H        0.926     0.031     2.574     2.509
    32   1 H        0.926     0.028     2.621     2.532
    33   1 H        0.926     0.034     2.534     2.489
    34   1 H        0.926     0.032     2.558     2.501

Wiberg/Mayer (AO) data.
largest (>0.10) Wiberg bond orders for each atom

     #   Z sym  total        # sym  WBO       # sym  WBO       # sym  WBO
 ---------------------------------------------------------------------------
     1   1 H    0.966 --     2 N    0.925
     2   7 N    3.487 --     3 C    1.205     5 C    1.076     1 H    0.925
     3   6 C    3.963 --     6 C    1.487     2 N    1.205     4 C    0.993
     4   6 C    3.987 --    11 C    1.409    12 C    1.396     3 C    0.993
                            15 C    0.110
     5   6 C    3.955 --    17 C    1.358    16 C    1.355     2 N    1.076
     6   6 C    3.959 --     3 C    1.487     7 C    1.151     9 C    1.052
     7   6 C    3.976 --    10 C    1.688     6 C    1.151    32 H    0.971
     8   7 N    3.501 --     9 C    1.149    10 C    1.139    21 H    0.942
                            22 O    0.140
     9   6 C    3.948 --    22 O    1.617     8 N    1.149     6 C    1.052
    10   6 C    3.945 --     7 C    1.688     8 N    1.139    33 H    0.969
    11   6 C    3.988 --    13 C    1.441     4 C    1.409    23 H    0.970
                            14 C    0.111
    12   6 C    3.990 --    14 C    1.447     4 C    1.396    24 H    0.970
                            13 C    0.112
    13   6 C    3.991 --    15 C    1.442    11 C    1.441    25 H    0.970
                            12 C    0.112
    14   6 C    3.991 --    12 C    1.447    15 C    1.435    26 H    0.970
                            11 C    0.111
    15   6 C    3.990 --    13 C    1.442    14 C    1.435    27 H    0.971
                             4 C    0.110
    16   6 C    3.988 --    18 C    1.448     5 C    1.355    28 H    0.965
                            19 C    0.104
    17   6 C    3.982 --    19 C    1.460     5 C    1.358    29 H    0.966
                            18 C    0.104
    18   6 C    3.991 --    16 C    1.448    20 C    1.436    30 H    0.970
                            17 C    0.104
    19   6 C    3.991 --    17 C    1.460    20 C    1.423    31 H    0.971
                            16 C    0.104
    20   6 C    3.978 --    18 C    1.436    19 C    1.423    34 H    0.972
    21   1 H    0.970 --     8 N    0.942
    22   8 O    2.001 --     9 C    1.617     8 N    0.140
    23   1 H    0.998 --    11 C    0.970
    24   1 H    0.999 --    12 C    0.970
    25   1 H    0.998 --    13 C    0.970
    26   1 H    0.998 --    14 C    0.970
    27   1 H    0.998 --    15 C    0.971
    28   1 H    0.997 --    16 C    0.965
    29   1 H    1.000 --    17 C    0.966
    30   1 H    0.998 --    18 C    0.970
    31   1 H    0.998 --    19 C    0.971
    32   1 H    0.999 --     7 C    0.971
    33   1 H    0.998 --    10 C    0.969
    34   1 H    0.999 --    20 C    0.972
 ---------------------------------------------------------------------------

molecular dipole:
                 x           y           z       tot (Debye)
 q only:       -0.735      -1.046      -0.090
   full:       -1.015      -0.864      -0.214       3.432

           -------------------------------------------------
          | TOTAL ENERGY              -53.408401759391 Eh   |
          | GRADIENT NORM               0.000524426579 Eh/α |
          | HOMO-LUMO GAP               2.113774691010 eV   |
           -------------------------------------------------

 * finished run on 2023/11/18 at 09:09:31.689
