                               Psi4 1.6 release

  ==> Input File <==

--------------------------------------------------------------------------
molecule {
0 1
 H    1.076364    1.011640   -1.213918
 N    0.854497    0.151218   -0.706454
 C   -0.446681    0.206093   -0.231053
 C   -1.321748   -0.988347   -0.365828
 C    1.992729   -0.298004   -0.042527
 C   -1.034452    1.418479   -0.014143
 C   -2.338591    1.713851    0.524961
 N   -1.255276    3.652961    0.245691
 C   -0.354664    2.714206   -0.181589
 C   -2.422498    3.047805    0.680395
 C   -1.365468   -2.073190    0.499246
 C   -2.188463   -0.969753   -1.458660
 C   -2.235759   -3.124803    0.266506
 C   -3.050477   -2.023711   -1.693611
 C   -3.075944   -3.107554   -0.831912
 C    1.951264   -1.028723    1.140675
 C    3.236215    0.026385   -0.588524
 C    3.122268   -1.458031    1.737816
 C    4.399535   -0.405408    0.013626
 C    4.350384   -1.159343    1.175952
 H   -1.073971    4.642565    0.258823
 O    0.748280    2.951485   -0.653876
 H   -0.738146   -2.102150    1.375876
 H   -2.172780   -0.124084   -2.130245
 H   -2.258168   -3.959250    0.951976
 H   -3.708502   -1.995438   -2.549574
 H   -3.751976   -3.929932   -1.012570
 H    1.004326   -1.229618    1.613039
 H    3.276825    0.623522   -1.487650
 H    3.071123   -2.022343    2.657832
 H    5.353257   -0.145841   -0.421886
 H   -3.080402    0.982421    0.775926
 H   -3.221477    3.641781    1.081416
 H    5.261770   -1.495888    1.646323
}
memory 20GB
set_num_threads(5)
psi4_io.set_default_path("/scratch/liuchw/Psi4-1_7_Index_0-farH_in17")
set freeze_core True
E, wfn = energy('wb97x-d/6-311+G*',return_wfn=True)
oeprop(wfn,"WIBERG_LOWDIN_INDICES")
clean()
--------------------------------------------------------------------------

    Molecular point group: c1

    Geometry (in Angstrom), charge = 0, multiplicity = 1:

       Center              X                  Y                   Z               Mass
    ------------   -----------------  -----------------  -----------------  -----------------
         H            1.091628342094     0.995585684494    -1.184245914107     1.007825032230
         N            0.869761342094     0.135163684494    -0.676781914107    14.003074004430
         C           -0.431416657906     0.190038684494    -0.201380914107    12.000000000000
         C           -1.306483657906    -1.004401315506    -0.336155914107    12.000000000000
         C            2.007993342094    -0.314058315506    -0.012854914107    12.000000000000
         C           -1.019187657906     1.402424684494     0.015529085893    12.000000000000
         C           -2.323326657906     1.697796684494     0.554633085893    12.000000000000
         N           -1.240011657906     3.636906684494     0.275363085893    14.003074004430
         C           -0.339399657906     2.698151684494    -0.151916914107    12.000000000000
         C           -2.407233657906     3.031750684494     0.710067085893    12.000000000000
         C           -1.350203657906    -2.089244315506     0.528918085893    12.000000000000
         C           -2.173198657906    -0.985807315506    -1.428987914107    12.000000000000
         C           -2.220494657906    -3.140857315506     0.296178085893    12.000000000000
         C           -3.035212657906    -2.039765315506    -1.663938914107    12.000000000000
         C           -3.060679657906    -3.123608315506    -0.802239914107    12.000000000000
         C            1.966528342094    -1.044777315506     1.170347085893    12.000000000000
         C            3.251479342094     0.010330684494    -0.558851914107    12.000000000000
         C            3.137532342094    -1.474085315506     1.767488085893    12.000000000000
         C            4.414799342094    -0.421462315506     0.043298085893    12.000000000000
         C            4.365648342094    -1.175397315506     1.205624085893    12.000000000000
         H           -1.058706657906     4.626510684494     0.288495085893     1.007825032230
         O            0.763544342094     2.935430684494    -0.624203914107    15.994914619570
         H           -0.722881657906    -2.118204315506     1.405548085893     1.007825032230
         H           -2.157515657906    -0.140138315506    -2.100572914107     1.007825032230
         H           -2.242903657906    -3.975304315506     0.981648085893     1.007825032230
         H           -3.693237657906    -2.011492315506    -2.519901914107     1.007825032230
         H           -3.736711657906    -3.945986315506    -0.982897914107     1.007825032230
         H            1.019590342094    -1.245672315506     1.642711085893     1.007825032230
         H            3.292089342094     0.607467684494    -1.457977914107     1.007825032230
         H            3.086387342094    -2.038397315506     2.687504085893     1.007825032230
         H            5.368521342094    -0.161895315506    -0.392213914107     1.007825032230
         H           -3.065137657906     0.966366684494     0.805598085893     1.007825032230
         H           -3.206212657906     3.625726684494     1.111088085893     1.007825032230
         H            5.277034342094    -1.511942315506     1.675995085893     1.007825032230

  Charge       = 0
  Multiplicity = 1
  Basis Set: 6-311+G*
    Blend: 6-311+G*
  Basis Set: (6-311+G* AUX)
    Blend: HEAVY-AUG-CC-PVTZ-JKFIT

    Orbital Energies [Eh]
    ---------------------

    Doubly Occupied:

       1A    -19.222926     2A    -14.475748     3A    -14.452540
       4A    -10.392998     5A    -10.359086     6A    -10.332286
       7A    -10.330348     8A    -10.311951     9A    -10.300017
      10A    -10.299776    11A    -10.298164    12A    -10.297053
      13A    -10.296517    14A    -10.296081    15A    -10.285202
      16A    -10.283296    17A    -10.282268    18A    -10.279606
      19A    -10.278113    20A    -10.273557    21A     -1.155519
      22A     -1.073926    23A     -1.064330    24A     -0.981142
      25A     -0.955917    26A     -0.917747    27A     -0.877467
      28A     -0.862484    29A     -0.848461    30A     -0.846657
      31A     -0.819300    32A     -0.775056    33A     -0.721024
      34A     -0.717295    35A     -0.708282    36A     -0.702310
      37A     -0.687610    38A     -0.657553    39A     -0.635055
      40A     -0.615066    41A     -0.610199    42A     -0.586082
      43A     -0.576120    44A     -0.559837    45A     -0.556484
      46A     -0.540982    47A     -0.535314    48A     -0.528997
      49A     -0.525938    50A     -0.520695    51A     -0.513295
      52A     -0.511033    53A     -0.506046    54A     -0.496559
      55A     -0.476732    56A     -0.470227    57A     -0.446385
      58A     -0.443620    59A     -0.438293    60A     -0.427480
      61A     -0.423894    62A     -0.414480    63A     -0.369300
      64A     -0.351661    65A     -0.343408    66A     -0.341794
      67A     -0.328588    68A     -0.299191    69A     -0.269455

  @DF-RKS Final Energy:  -840.84455437760607

   => Energetics <=

    Nuclear Repulsion Energy =           1421.4066410580164757
    One-Electron Energy =               -3961.4828127108421540
    Two-Electron Energy =                1782.0348167140136866
    DFT Exchange-Correlation Energy =     -82.7794444218327357
    Empirical Dispersion Energy =          -0.0237550169612398
    VV10 Nonlocal Energy =                  0.0000000000000000
    Total Energy =                       -840.8445543776061868
 Dipole X            :         -0.6520491           -0.6965356           -1.3485847
 Dipole Y            :          5.9977904           -5.9285727            0.0692177
 Dipole Z            :         -1.4804271            1.8363354            0.3559083
 Magnitude           :                                                    1.3964750
*** Psi4 exiting successfully. Buy a developer a beer!
