                               Psi4 1.6 release

  ==> Input File <==

--------------------------------------------------------------------------
molecule {
0 1
 H    1.209485    1.611228   -0.149719
 N    0.943710    0.646249   -0.407012
 C   -0.404103    0.529922   -0.291415
 C   -1.122085   -0.765276   -0.247180
 C    1.959691   -0.231836   -0.025401
 C   -1.154914    1.678125   -0.213982
 C   -2.574248    1.836500   -0.033204
 N   -1.621068    3.849885    0.166907
 C   -0.570010    3.007306   -0.056829
 C   -2.813942    3.144830    0.178337
 C   -1.337410   -1.394668    0.976177
 C   -1.709162   -1.283972   -1.394632
 C   -2.091184   -2.552143    1.039234
 C   -2.459187   -2.445432   -1.327230
 C   -2.649540   -3.082026   -0.112748
 C    1.808690   -1.605063    0.159324
 C    3.248652    0.309658    0.018507
 C    2.907108   -2.389292    0.464715
 C    4.337453   -0.480355    0.322110
 C    4.172037   -1.836851    0.555189
 H   -1.529603    4.840895    0.314266
 O    0.618892    3.330751   -0.065094
 H   -0.905268   -0.975573    1.873550
 H   -1.563842   -0.780819   -2.339021
 H   -2.247531   -3.038346    1.990807
 H   -2.903546   -2.848977   -2.225020
 H   -3.238230   -3.985833   -0.061434
 H    0.842194   -2.070011    0.066325
 H    3.377066    1.367268   -0.162428
 H    2.767720   -3.448865    0.621727
 H    5.322025   -0.039027    0.367050
 H   -3.297446    1.046991   -0.081798
 H   -3.741813    3.655173    0.350189
 H    5.022805   -2.457416    0.791791
}
memory 20GB
set_num_threads(5)
psi4_io.set_default_path("/scratch/liuchw/Psi4-1_7_Index_0-farH_in17")
set freeze_core True
E, wfn = energy('wb97x-d/6-311+G*',return_wfn=True)
oeprop(wfn,"WIBERG_LOWDIN_INDICES")
clean()
--------------------------------------------------------------------------

    Molecular point group: c1

    Geometry (in Angstrom), charge = 0, multiplicity = 1:

       Center              X                  Y                   Z               Mass
    ------------   -----------------  -----------------  -----------------  -----------------
         H            1.232012643146     1.541300091937    -0.138636583122     1.007825032230
         N            0.966237643146     0.576321091937    -0.395929583122    14.003074004430
         C           -0.381575356854     0.459994091937    -0.280332583122    12.000000000000
         C           -1.099557356854    -0.835203908063    -0.236097583122    12.000000000000
         C            1.982218643146    -0.301763908063    -0.014318583122    12.000000000000
         C           -1.132386356854     1.608197091937    -0.202899583122    12.000000000000
         C           -2.551720356854     1.766572091937    -0.022121583122    12.000000000000
         N           -1.598540356854     3.779957091937     0.177989416878    14.003074004430
         C           -0.547482356854     2.937378091937    -0.045746583122    12.000000000000
         C           -2.791414356854     3.074902091937     0.189419416878    12.000000000000
         C           -1.314882356854    -1.464595908063     0.987259416878    12.000000000000
         C           -1.686634356854    -1.353899908063    -1.383549583122    12.000000000000
         C           -2.068656356854    -2.622070908063     1.050316416878    12.000000000000
         C           -2.436659356854    -2.515359908063    -1.316147583122    12.000000000000
         C           -2.627012356854    -3.151953908063    -0.101665583122    12.000000000000
         C            1.831217643146    -1.674990908063     0.170406416878    12.000000000000
         C            3.271179643146     0.239730091937     0.029589416878    12.000000000000
         C            2.929635643146    -2.459219908063     0.475797416878    12.000000000000
         C            4.359980643146    -0.550282908063     0.333192416878    12.000000000000
         C            4.194564643146    -1.906778908063     0.566271416878    12.000000000000
         H           -1.507075356854     4.770967091937     0.325348416878     1.007825032230
         O            0.641419643146     3.260823091937    -0.054011583122    15.994914619570
         H           -0.882740356854    -1.045500908063     1.884632416878     1.007825032230
         H           -1.541314356854    -0.850746908063    -2.327938583122     1.007825032230
         H           -2.225003356854    -3.108273908063     2.001889416878     1.007825032230
         H           -2.881018356854    -2.918904908063    -2.213937583122     1.007825032230
         H           -3.215702356854    -4.055760908063    -0.050351583122     1.007825032230
         H            0.864721643146    -2.139938908063     0.077407416878     1.007825032230
         H            3.399593643146     1.297340091937    -0.151345583122     1.007825032230
         H            2.790247643146    -3.518792908063     0.632809416878     1.007825032230
         H            5.344552643146    -0.108954908063     0.378132416878     1.007825032230
         H           -3.274918356854     0.977063091937    -0.070715583122     1.007825032230
         H           -3.719285356854     3.585245091937     0.361271416878     1.007825032230
         H            5.045332643146    -2.527343908063     0.802873416878     1.007825032230

  Charge       = 0
  Multiplicity = 1
  Basis Set: 6-311+G*
    Blend: 6-311+G*
  Basis Set: (6-311+G* AUX)
    Blend: HEAVY-AUG-CC-PVTZ-JKFIT

    Orbital Energies [Eh]
    ---------------------

    Doubly Occupied:

       1A    -19.211014     2A    -14.470297     3A    -14.466530
       4A    -10.379228     5A    -10.362908     6A    -10.336326
       7A    -10.315975     8A    -10.315930     9A    -10.304128
      10A    -10.303996    11A    -10.302666    12A    -10.302184
      13A    -10.301806    14A    -10.288537    15A    -10.288366
      16A    -10.286249    17A    -10.284047    18A    -10.282885
      19A    -10.281978    20A    -10.275670    21A     -1.143972
      22A     -1.077848    23A     -1.062359    24A     -0.986392
      25A     -0.962999    26A     -0.915244    27A     -0.876423
      28A     -0.867815    29A     -0.854298    30A     -0.853568
      31A     -0.813312    32A     -0.772650    33A     -0.727283
      34A     -0.722445    35A     -0.717029    36A     -0.697597
      37A     -0.681637    38A     -0.663459    39A     -0.639579
      40A     -0.615060    41A     -0.601616    42A     -0.583828
      43A     -0.581670    44A     -0.567660    45A     -0.555391
      46A     -0.536841    47A     -0.532275    48A     -0.530200
      49A     -0.526143    50A     -0.517414    51A     -0.515160
      52A     -0.511813    53A     -0.500820    54A     -0.496319
      55A     -0.481201    56A     -0.475883    57A     -0.450841
      58A     -0.448058    59A     -0.444611    60A     -0.435993
      61A     -0.428371    62A     -0.416334    63A     -0.365277
      64A     -0.349562    65A     -0.345694    66A     -0.339790
      67A     -0.333799    68A     -0.309163    69A     -0.258212

  @DF-RKS Final Energy:  -840.86145864512048

   => Energetics <=

    Nuclear Repulsion Energy =           1429.4839063720723971
    One-Electron Energy =               -3977.5221410928752448
    Two-Electron Energy =                1789.9937797288446291
    DFT Exchange-Correlation Energy =     -82.7927617500174762
    Empirical Dispersion Energy =          -0.0242419031448239
    VV10 Nonlocal Energy =                  0.0000000000000000
    Total Energy =                       -840.8614586451204786
 Dipole X            :         -0.4954362           -0.5299987           -1.0254350
 Dipole Y            :          6.8636252           -7.5926462           -0.7290210
 Dipole Z            :         -1.1478550            1.4173013            0.2694463
 Magnitude           :                                                    1.2866972
*** Psi4 exiting successfully. Buy a developer a beer!
