                               Psi4 1.6 release

  ==> Input File <==

--------------------------------------------------------------------------
molecule {
0 1
 H    0.942748    0.274030   -1.898506
 N    0.770172   -0.221804   -1.032207
 C   -0.512027    0.039494   -0.493479
 C   -1.485499   -1.068360   -0.634615
 C    1.886375   -0.252024   -0.200264
 C   -0.845300    1.218563    0.071946
 C   -2.083437    1.603600    0.711444
 N   -0.706831    3.371605    0.767437
 C    0.036423    2.415364    0.119821
 C   -1.951602    2.877908    1.116574
 C   -1.441346   -2.170858    0.210709
 C   -2.405164   -1.046226   -1.677775
 C   -2.328194   -3.217987    0.035077
 C   -3.286299   -2.097974   -1.853621
 C   -3.251660   -3.184329   -0.995917
 C    1.774685   -0.450813    1.173990
 C    3.158089   -0.194082   -0.769029
 C    2.907430   -0.577920    1.954992
 C    4.283635   -0.324529    0.018145
 C    4.166824   -0.518381    1.384943
 H   -0.375496    4.301381    0.963034
 O    1.145828    2.579813   -0.341624
 H   -0.714501   -2.205360    1.007788
 H   -2.432436   -0.196211   -2.344086
 H   -2.293043   -4.066305    0.702611
 H   -3.998774   -2.070770   -2.664966
 H   -3.939749   -4.005123   -1.134019
 H    0.797441   -0.489550    1.633871
 H    3.254523   -0.033137   -1.833215
 H    2.802012   -0.723508    3.020793
 H    5.261553   -0.270904   -0.438144
 H   -2.930245    0.960745    0.843476
 H   -2.651627    3.504063    1.637350
 H    5.048891   -0.617407    1.999525
}
memory 20GB
set_num_threads(5)
psi4_io.set_default_path("/scratch/liuchw/Psi4-1_7_Index_0-farH_in17")
set freeze_core True
E, wfn = energy('wb97x-d/6-311+G*',return_wfn=True)
oeprop(wfn,"WIBERG_LOWDIN_INDICES")
clean()
--------------------------------------------------------------------------

    Molecular point group: c1

    Geometry (in Angstrom), charge = 0, multiplicity = 1:

       Center              X                  Y                   Z               Mass
    ------------   -----------------  -----------------  -----------------  -----------------
         H            0.937211146373     0.288123427026    -1.877181666274     1.007825032230
         N            0.764635146373    -0.207710572974    -1.010882666274    14.003074004430
         C           -0.517563853627     0.053587427026    -0.472154666274    12.000000000000
         C           -1.491035853627    -1.054266572974    -0.613290666274    12.000000000000
         C            1.880838146373    -0.237930572974    -0.178939666274    12.000000000000
         C           -0.850836853627     1.232656427026     0.093270333726    12.000000000000
         C           -2.088973853627     1.617693427026     0.732768333726    12.000000000000
         N           -0.712367853627     3.385698427026     0.788761333726    14.003074004430
         C            0.030886146373     2.429457427026     0.141145333726    12.000000000000
         C           -1.957138853627     2.892001427026     1.137898333726    12.000000000000
         C           -1.446882853627    -2.156764572974     0.232033333726    12.000000000000
         C           -2.410700853627    -1.032132572974    -1.656450666274    12.000000000000
         C           -2.333730853627    -3.203893572974     0.056401333726    12.000000000000
         C           -3.291835853627    -2.083880572974    -1.832296666274    12.000000000000
         C           -3.257196853627    -3.170235572974    -0.974592666274    12.000000000000
         C            1.769148146373    -0.436719572974     1.195314333726    12.000000000000
         C            3.152552146373    -0.179988572974    -0.747704666274    12.000000000000
         C            2.901893146373    -0.563826572974     1.976316333726    12.000000000000
         C            4.278098146373    -0.310435572974     0.039469333726    12.000000000000
         C            4.161287146373    -0.504287572974     1.406267333726    12.000000000000
         H           -0.381032853627     4.315474427026     0.984358333726     1.007825032230
         O            1.140291146373     2.593906427026    -0.320299666274    15.994914619570
         H           -0.720037853627    -2.191266572974     1.029112333726     1.007825032230
         H           -2.437972853627    -0.182117572974    -2.322761666274     1.007825032230
         H           -2.298579853627    -4.052211572974     0.723935333726     1.007825032230
         H           -4.004310853627    -2.056676572974    -2.643641666274     1.007825032230
         H           -3.945285853627    -3.991029572974    -1.112694666274     1.007825032230
         H            0.791904146373    -0.475456572974     1.655195333726     1.007825032230
         H            3.248986146373    -0.019043572974    -1.811890666274     1.007825032230
         H            2.796475146373    -0.709414572974     3.042117333726     1.007825032230
         H            5.256016146373    -0.256810572974    -0.416819666274     1.007825032230
         H           -2.935781853627     0.974838427026     0.864800333726     1.007825032230
         H           -2.657163853627     3.518156427026     1.658674333726     1.007825032230
         H            5.043354146373    -0.603313572974     2.020849333726     1.007825032230

  Charge       = 0
  Multiplicity = 1
  Basis Set: 6-311+G*
    Blend: 6-311+G*
  Basis Set: (6-311+G* AUX)
    Blend: HEAVY-AUG-CC-PVTZ-JKFIT

    Orbital Energies [Eh]
    ---------------------

    Doubly Occupied:

       1A    -19.225189     2A    -14.477601     3A    -14.443238
       4A    -10.396712     5A    -10.350746     6A    -10.341318
       7A    -10.320034     8A    -10.309102     9A    -10.305207
      10A    -10.296117    11A    -10.294891    12A    -10.294565
      13A    -10.294020    14A    -10.293354    15A    -10.288426
      16A    -10.275577    17A    -10.274846    18A    -10.269690
      19A    -10.269592    20A    -10.264670    21A     -1.159042
      22A     -1.077232    23A     -1.055201    24A     -0.976971
      25A     -0.946627    26A     -0.917372    27A     -0.876357
      28A     -0.859485    29A     -0.841774    30A     -0.837616
      31A     -0.820491    32A     -0.774628    33A     -0.715537
      34A     -0.711973    35A     -0.705804    36A     -0.699258
      37A     -0.688812    38A     -0.651405    39A     -0.625749
      40A     -0.618663    41A     -0.608967    42A     -0.586985
      43A     -0.565668    44A     -0.557391    45A     -0.554587
      46A     -0.543146    47A     -0.532385    48A     -0.529692
      49A     -0.522630    50A     -0.519766    51A     -0.515109
      52A     -0.512684    53A     -0.499213    54A     -0.494897
      55A     -0.467511    56A     -0.462630    57A     -0.442226
      58A     -0.439410    59A     -0.432703    60A     -0.430230
      61A     -0.416985    62A     -0.390100    63A     -0.384550
      64A     -0.347170    65A     -0.340878    66A     -0.337833
      67A     -0.320884    68A     -0.293985    69A     -0.272741

  @DF-RKS Final Energy:  -840.84168899476549

   => Energetics <=

    Nuclear Repulsion Energy =           1438.0773672117679780
    One-Electron Energy =               -3995.2461755500526124
    Two-Electron Energy =                1799.1278538816818582
    DFT Exchange-Correlation Energy =     -82.7758154276259432
    Empirical Dispersion Energy =          -0.0249191105368818
    VV10 Nonlocal Energy =                  0.0000000000000000
    Total Energy =                       -840.8416889947656045
 Dipole X            :         -0.2637195           -1.2192131           -1.4829326
 Dipole Y            :          5.5589730           -5.0973020            0.4616710
 Dipole Z            :         -1.4092180            1.6809757            0.2717577
 Magnitude           :                                                    1.5767313
*** Psi4 exiting successfully. Buy a developer a beer!
