                               Psi4 1.6 release

  ==> Input File <==

--------------------------------------------------------------------------
molecule {
0 1
N -1.657026541227 -0.551230501367 0.29617449044
C -0.405237468369 -0.247231345633 -0.158134952149
C 0.707085784206 -0.34552920948 0.873872124336
N 1.739581154808 0.622908783921 0.532338576373
O -0.166682687891 -0.000686258217 -1.338640085812
H 1.036993681017 -1.398435722869 0.867784134451
H 0.320442469609 -0.140449327496 1.878622231034
H -2.418819358415 -0.420310525638 -0.357127712374
H -1.875622792159 -0.486183373559 1.279593614348
H 2.629612574337 0.343036170997 0.937241135067
H 1.845073186672 0.605811716333 -0.48134430704
}
memory 20GB
set_num_threads(5)
psi4_io.set_default_path("/scratch/liuchw/Psi4-25_27_Index_0-farH_in17")
set maxiter 500
set freeze_core True
set PROPERTIES_ORIGIN ["COM"]
set cubeprop_tasks ['esp']
set basis aug-cc-pVTZ
E, wfn = properties('mp2',properties=['dipole','GRID_ESP','WIBERG_LOWDIN_INDICES','MULLIKEN_CHARGES'],return_wfn=True)
cubeprop(wfn)
fchk(wfn, "25_27_Index_0-esp.fchk")
clean()
--------------------------------------------------------------------------

    Molecular point group: c1
  Charge       = 0
  Multiplicity = 1
  Basis Set: AUG-CC-PVTZ
    Blend: AUG-CC-PVTZ
  Basis Set: (AUG-CC-PVTZ AUX)
    Blend: AUG-CC-PVTZ-JKFIT

    Orbital Energies [Eh]
    ---------------------

    Doubly Occupied:

       1A    -20.527272     2A    -15.593572     3A    -15.546065
       4A    -11.359298     5A    -11.273341     6A     -1.382916
       7A     -1.218208     8A     -1.184575     9A     -0.954892
      10A     -0.793027    11A     -0.729960    12A     -0.697106
      13A     -0.647561    14A     -0.628898    15A     -0.570335
      16A     -0.559233    17A     -0.542669    18A     -0.436369
      19A     -0.424470    20A     -0.400248

  @DF-RHF Final Energy:  -263.10550698071307

   => Energetics <=

    Nuclear Repulsion Energy =            180.1861294657560393
    One-Electron Energy =                -715.6432429703338585
    Two-Electron Energy =                 272.3516065238647457
    Total Energy =                       -263.1055069807130735
  Basis Set: (AUG-CC-PVTZ AUX)
    Blend: AUG-CC-PVTZ-RI
    Molecular point group: c1

    Geometry (in Angstrom), charge = 0, multiplicity = 1:

       Center              X                  Y                   Z               Mass
    ------------   -----------------  -----------------  -----------------  -----------------
         N           -1.706478711613    -0.448207770801     0.256522008081    14.003074004430
         C           -0.454689638755    -0.144208615067    -0.197787434508    12.000000000000
         C            0.657633613820    -0.242506478914     0.834219641977    12.000000000000
         N            1.690128984422     0.725931514487     0.492686094014    14.003074004430
         O           -0.216134858277     0.102336472349    -1.378292568171    15.994914619570
         H            0.987541510631    -1.295412992303     0.828131652092     1.007825032230
         H            0.270990299223    -0.037426596930     1.838969748675     1.007825032230
         H           -2.468271528801    -0.317287795072    -0.396780194733     1.007825032230
         H           -1.925074962545    -0.383160642993     1.239941131989     1.007825032230
         H            2.580160403951     0.446058901563     0.897588652708     1.007825032230
         H            1.795621016286     0.708834446899    -0.520996789399     1.007825032230

  Basis Set: AUG-CC-PVTZ
    Blend: AUG-CC-PVTZ
  Basis Set: (AUG-CC-PVTZ AUX)
    Blend: AUG-CC-PVTZ-JKFIT
	 Reference Energy          =    -263.1055069807130735 [Eh]
	 Singles Energy            =      -0.0000000000000000 [Eh]
	 Same-Spin Energy          =      -0.2485529540492028 [Eh]
	 Opposite-Spin Energy      =      -0.7581326837228651 [Eh]
	 Correlation Energy        =      -1.0066856377720679 [Eh]
	 Total Energy              =    -264.1121926184851532 [Eh]

	 ================> DF-SCS-MP2 Energies <==================
	-----------------------------------------------------------
	 SCS Same-Spin Scale       =       0.3333333333333333 [-]
	 SCS Opposite-Spin Scale   =       1.2000000000000000 [-]
	 SCS Same-Spin Energy      =      -0.0828509846830676 [Eh]
	 SCS Opposite-Spin Energy  =      -0.9097592204674381 [Eh]
	 SCS Correlation Energy    =      -0.9926102051505057 [Eh]
	 SCS Total Energy          =    -264.0981171858636003 [Eh]
	-----------------------------------------------------------

 Dipole X            :         -1.6176743            1.1623774           -0.4552969
 Dipole Y            :          0.2196735           -0.8237831           -0.6041097
 Dipole Z            :         -2.5348970            3.6350084            1.1001114
 Magnitude           :                                                    1.3350989

  Mulliken Charges: (a.u.)
   Center  Symbol    Alpha    Beta     Spin     Total
       1     N     3.65680  3.65680  0.00000 -0.31361
       2     C     2.78600  2.78600  0.00000  0.42800
       3     C     3.03521  3.03521  0.00000 -0.07042
       4     N     3.77229  3.77229  0.00000 -0.54457
       5     O     4.33048  4.33048  0.00000 -0.66096
       6     H     0.34111  0.34111  0.00000  0.31777
       7     H     0.36880  0.36880  0.00000  0.26240
       8     H     0.41929  0.41929  0.00000  0.16141
       9     H     0.43189  0.43189  0.00000  0.13622
      10     H     0.44082  0.44082  0.00000  0.11835
      11     H     0.41730  0.41730  0.00000  0.16540

   Total alpha = 20.00000, Total beta = 20.00000, Total charge = -0.00000

  Basis Set: AUG-CC-PVTZ
    Blend: AUG-CC-PVTZ
*** Psi4 exiting successfully. Buy a developer a beer!
