   * xtb version 6.5.0 (97a52f5) compiled by 'conda@d2599ee0d4f4' on 2022-05-15
          program call               : /home/liuchw/anaconda3/envs/xtbenv/bin/xtb extended_conformer.xyz --opt loose --input constraint.inp --chrg 0 --uhf 0

   ID    Z sym.   atoms
    1    8 O      1
    2    6 C      2, 3
    3    1 H      4-9

          :  Hamiltonian                  GFN2-xTB          :
 * total energy  :   -11.3912816 Eh     change       -0.5789147E-11 Eh
 * total energy  :   -11.3917778 Eh     change       -0.4961750E-03 Eh
 * total energy  :   -11.3918580 Eh     change       -0.8017835E-04 Eh
 * total energy  :   -11.3918660 Eh     change       -0.8077155E-05 Eh
   *** GEOMETRY OPTIMIZATION CONVERGED AFTER 4 ITERATIONS ***

 final structure:
================
9
 xtb: 6.5.0 (97a52f5)
O            1.14477327219741       -0.56002841132275       -0.79312647552555
C            0.45994511735984        0.24691964526088        0.14451491884856
C           -1.01625089073645       -0.11522593413359        0.10305731584673
H            0.59118943779462        1.31111095529288       -0.10184558361186
H            0.85866098020317        0.07686721470667        1.15571691803854
H           -1.40741067505210        0.05542606703238       -0.89558931201315
H           -1.56899118860233        0.49061481521305        0.81522709103628
H           -1.14281394724473       -1.16555182378396        0.34845601965784
H            2.08089789408057       -0.34013152826556       -0.77641089227739

          :  Hamiltonian                  GFN2-xTB          :
         :: total energy             -11.391866038384 Eh    ::
         :: gradient norm              0.001288287326 Eh/a0 ::
         :: HOMO-LUMO gap             12.535236568548 eV    ::
         :: SCC energy               -11.513034546298 Eh    ::
         :: -> dispersion             -0.002775871224 Eh    ::
         :: repulsion energy           0.121168054803 Eh    ::

    * Orbital Energies and Occupations

         #    Occupation            Energy/Eh            Energy/eV
      -------------------------------------------------------------
         1        2.0000           -0.6850639             -18.6415
         2        2.0000           -0.6262198             -17.0403
         3        2.0000           -0.5795160             -15.7694
         4        2.0000           -0.5669874             -15.4285
         5        2.0000           -0.5305298             -14.4364
         6        2.0000           -0.5060791             -13.7711
         7        2.0000           -0.4657987             -12.6750
         8        2.0000           -0.4595717             -12.5056
         9        2.0000           -0.4504585             -12.2576
        10        2.0000           -0.4080142             -11.1026 (HOMO)
        11                          0.0526473               1.4326 (LUMO)
        12                          0.1262588               3.4357
        13                          0.1319600               3.5908
        14                          0.1529112               4.1609
        15                          0.1821179               4.9557
        16                          0.2126637               5.7869
        17                          0.2641657               7.1883
        18                          0.2714012               7.3852
      -------------------------------------------------------------
                  HL-Gap            0.4606615 Eh           12.5352 eV

     #   Z          covCN         q      C6AA      α(0)
     1   8 O        1.656    -0.442    21.682     6.286
     2   6 C        3.671     0.092    19.284     6.294
     3   6 C        3.751    -0.111    22.678     6.791
     4   1 H        0.923     0.015     2.814     2.623
     5   1 H        0.923     0.015     2.814     2.623
     6   1 H        0.925     0.055     2.262     2.352
     7   1 H        0.925     0.039     2.460     2.453
     8   1 H        0.925     0.055     2.262     2.352
     9   1 H        0.805     0.283     0.776     1.384

Wiberg/Mayer (AO) data.
largest (>0.10) Wiberg bond orders for each atom

     #   Z sym  total        # sym  WBO       # sym  WBO       # sym  WBO
 ---------------------------------------------------------------------------
     1   8 O    1.951 --     2 C    0.993     9 H    0.907
     2   6 C    3.958 --     3 C    1.018     1 O    0.993     5 H    0.973
                             4 H    0.973
     3   6 C    3.994 --     2 C    1.018     7 H    0.986     6 H    0.986
                             8 H    0.986
     4   1 H    1.000 --     2 C    0.973
     5   1 H    1.000 --     2 C    0.973
     6   1 H    0.997 --     3 C    0.986
     7   1 H    0.998 --     3 C    0.986
     8   1 H    0.997 --     3 C    0.986
     9   1 H    0.920 --     1 O    0.907
 ---------------------------------------------------------------------------

molecular dipole:
                 x           y           z       tot (Debye)
 q only:        0.108       0.314       0.285
   full:        0.292       0.468       0.397       1.727

           -------------------------------------------------
          | TOTAL ENERGY              -11.391866038384 Eh   |
          | GRADIENT NORM               0.001288287326 Eh/α |
          | HOMO-LUMO GAP              12.535236568548 eV   |
           -------------------------------------------------

 * finished run on 2025/02/19 at 10:38:03.060
