                               Psi4 1.6 release

  ==> Input File <==

--------------------------------------------------------------------------
molecule {
0 1
 H   -1.607668   -1.034936    0.569324
 C   -1.308983    0.012562    0.637523
 O    0.110642    0.099472    0.738893
 C    0.789231    0.189235   -0.390895
 H   -1.718057    0.459750    1.540476
 H   -1.654284    0.544423   -0.250720
 O    0.340546    0.205903   -1.498064
 H    1.863513    0.253684   -0.149275
}
memory 20GB
set_num_threads(5)
psi4_io.set_default_path("/scratch/liuchw/Psi4-35_38_Index_0-farH_in17")
set freeze_core True
E, wfn = energy('wb97x-d/6-311+G*',return_wfn=True)
oeprop(wfn,"WIBERG_LOWDIN_INDICES")
clean()
--------------------------------------------------------------------------

    Molecular point group: c1

    Geometry (in Angstrom), charge = 0, multiplicity = 1:

       Center              X                  Y                   Z               Mass
    ------------   -----------------  -----------------  -----------------  -----------------
         H           -1.571660794420    -1.160403089594     0.693616147215     1.007825032230
         C           -1.272975794420    -0.112905089594     0.761815147215    12.000000000000
         O            0.146649205580    -0.025995089594     0.863185147215    15.994914619570
         C            0.825238205580     0.063767910406    -0.266602852785    12.000000000000
         H           -1.682049794420     0.334282910406     1.664768147215     1.007825032230
         H           -1.618276794420     0.418955910406    -0.126427852785     1.007825032230
         O            0.376553205580     0.080435910406    -1.373771852785    15.994914619570
         H            1.899520205580     0.128216910406    -0.024982852785     1.007825032230

  Charge       = 0
  Multiplicity = 1
  Basis Set: 6-311+G*
    Blend: 6-311+G*
  Basis Set: (6-311+G* AUX)
    Blend: HEAVY-AUG-CC-PVTZ-JKFIT

    Orbital Energies [Eh]
    ---------------------

    Doubly Occupied:

       1A    -19.311298     2A    -19.248101     3A    -10.421229
       4A    -10.345223     5A     -1.233463     6A     -1.142484
       7A     -0.852822     8A     -0.698018     9A     -0.637994
      10A     -0.589715    11A     -0.577033    12A     -0.521204
      13A     -0.498720    14A     -0.455424    15A     -0.404727
      16A     -0.380840

  @DF-RKS Final Energy:  -229.05252958972295

   => Energetics <=

    Nuclear Repulsion Energy =            122.8612948811102257
    One-Electron Energy =                -555.2585588827917036
    Two-Electron Energy =                 223.8363217966884235
    DFT Exchange-Correlation Energy =     -20.4900216449971708
    Empirical Dispersion Energy =          -0.0015657397327173
    VV10 Nonlocal Energy =                  0.0000000000000000
    Total Energy =                       -229.0525295897229512
 Dipole X            :          2.5155402           -2.7840833           -0.2685431
 Dipole Y            :          0.2207430           -0.2612430           -0.0405001
 Dipole Z            :         -1.2974338            2.0665170            0.7690832
 Magnitude           :                                                    0.8156253
*** Psi4 exiting successfully. Buy a developer a beer!
