   * xtb version 6.5.0 (97a52f5) compiled by 'conda@d2599ee0d4f4' on 2022-05-15
          program call               : /home/liuchw/anaconda3/envs/xtbenv/bin/xtb --gfn 2 --chrg 0 --uhf 0 35_38_Index_0-opt-2-3-090_preQMOPTprefit_xyzformat.xyz --opt --input xtb-opt-2-3-090_constr.txt

   ID    Z sym.   atoms
    1    1 H      1, 5, 6, 8
    2    6 C      2, 4
    3    8 O      3, 7
constraining angle 1 2 3 4 to   89.9884072°, actual value:   89.9884072°
constraining angle 2 3 4 7 to    0.0030725°, actual value:    0.0030725°

          :  Hamiltonian                  GFN2-xTB          :
 * total energy  :   -14.4398931 Eh     change       -0.3267253E-10 Eh
 * total energy  :   -14.4429452 Eh     change       -0.3052089E-02 Eh
 * total energy  :   -14.4433100 Eh     change       -0.3648359E-03 Eh
 * total energy  :   -14.4432327 Eh     change        0.7727183E-04 Eh
 * total energy  :   -14.4433595 Eh     change       -0.1268180E-03 Eh
 * total energy  :   -14.4433397 Eh     change        0.1989373E-04 Eh
 * total energy  :   -14.4433668 Eh     change       -0.2711232E-04 Eh
 * total energy  :   -14.4433672 Eh     change       -0.4418084E-06 Eh
   *** GEOMETRY OPTIMIZATION CONVERGED AFTER 8 ITERATIONS ***

 final structure:
================
8
 xtb: 6.5.0 (97a52f5)
H           -1.60766821149767       -1.03493557221384        0.56932394469233
C           -1.30898276204423        0.01256200326730        0.63752317959870
O            0.11064243170989        0.09947221812672        0.73889328756248
C            0.78923094267771        0.18923489211095       -0.39089512051856
H           -1.71805724749804        0.45974957455207        1.54047643146183
H           -1.65428417744427        0.54442325423608       -0.25071993494946
O            0.34054648662888        0.20590272732596       -1.49806409696383
H            1.86351253746772        0.25368388259475       -0.14927470088349

          :  Hamiltonian                  GFN2-xTB          :
         :: total energy             -14.443367210132 Eh    ::
         :: gradient norm              0.000334040680 Eh/a0 ::
         :: HOMO-LUMO gap              5.168146046703 eV    ::
         :: SCC energy               -14.571513904559 Eh    ::
         :: -> dispersion             -0.002866939826 Eh    ::
         :: repulsion energy           0.128146311179 Eh    ::

    * Orbital Energies and Occupations

         #    Occupation            Energy/Eh            Energy/eV
      -------------------------------------------------------------
         1        2.0000           -0.7602152             -20.6865
         2        2.0000           -0.7307063             -19.8835
         3        2.0000           -0.6874415             -18.7062
         4        2.0000           -0.6223997             -16.9364
         5        2.0000           -0.6041110             -16.4387
         6        2.0000           -0.6015990             -16.3703
         7        2.0000           -0.5734128             -15.6034
         8        2.0000           -0.5283666             -14.3776
         9        2.0000           -0.5206474             -14.1675
        10        2.0000           -0.4881387             -13.2829
        11        2.0000           -0.4620222             -12.5723
        12        2.0000           -0.4347214             -11.8294 (HOMO)
        13                         -0.2447955              -6.6612 (LUMO)
        14                          0.0077655               0.2113
        15                          0.1211657               3.2971
        16                          0.1448526               3.9416
        17                          0.1799211               4.8959
        18                          0.1866752               5.0797
        19                          0.2750562               7.4847
        20                          0.6478656              17.6293
      -------------------------------------------------------------
                  HL-Gap            0.1899259 Eh            5.1681 eV

     #   Z          covCN         q      C6AA      α(0)
     1   1 H        0.924     0.067     2.115     2.274
     2   6 C        3.656     0.023    20.488     6.498
     3   8 O        1.703    -0.237    17.934     5.718
     4   6 C        2.666     0.337    21.272     7.547
     5   1 H        0.925     0.074     2.040     2.234
     6   1 H        0.924     0.077     2.009     2.216
     7   8 O        0.856    -0.373    21.154     6.166
     8   1 H        0.923     0.032     2.558     2.501

Wiberg/Mayer (AO) data.
largest (>0.10) Wiberg bond orders for each atom

     #   Z sym  total        # sym  WBO       # sym  WBO       # sym  WBO
 ---------------------------------------------------------------------------
     1   1 H    0.995 --     2 C    0.976
     2   6 C    3.918 --     5 H    0.980     6 H    0.976     1 H    0.976
                             3 O    0.948
     3   8 O    2.344 --     4 C    1.178     2 C    0.948     7 O    0.197
     4   6 C    3.922 --     7 O    1.800     3 O    1.178     8 H    0.915
     5   1 H    0.994 --     2 C    0.980
     6   1 H    0.994 --     2 C    0.976
     7   8 O    2.070 --     4 C    1.800     3 O    0.197
     8   1 H    0.999 --     4 C    0.915
 ---------------------------------------------------------------------------

molecular dipole:
                 x           y           z       tot (Debye)
 q only:       -0.417      -0.041       0.746
   full:       -0.330      -0.049       0.853       2.327

           -------------------------------------------------
          | TOTAL ENERGY              -14.443367210132 Eh   |
          | GRADIENT NORM               0.000334040680 Eh/α |
          | HOMO-LUMO GAP               5.168146046703 eV   |
           -------------------------------------------------

 * finished run on 2023/11/18 at 08:06:24.426
