   * xtb version 6.5.0 (97a52f5) compiled by 'conda@d2599ee0d4f4' on 2022-05-15
          program call               : /home/liuchw/anaconda3/envs/xtbenv/bin/xtb --gfn 2 --chrg 0 --uhf 0 35_38_Index_0-opt-2-3-180_preQMOPTprefit_xyzformat.xyz --opt --input xtb-opt-2-3-180_constr.txt

   ID    Z sym.   atoms
    1    1 H      1, 5, 6, 8
    2    6 C      2, 4
    3    8 O      3, 7
constraining angle 1 2 3 4 to  179.9990749°, actual value:  179.9990749°
constraining angle 2 3 4 7 to  359.9991420°, actual value:   -0.0008580°

          :  Hamiltonian                  GFN2-xTB          :
 * total energy  :   -14.4399830 Eh     change       -0.3726619E-10 Eh
 * total energy  :   -14.4429704 Eh     change       -0.2987422E-02 Eh
 * total energy  :   -14.4433366 Eh     change       -0.3661322E-03 Eh
 * total energy  :   -14.4433531 Eh     change       -0.1653456E-04 Eh
 * total energy  :   -14.4433522 Eh     change        0.9467727E-06 Eh
 * total energy  :   -14.4433692 Eh     change       -0.1703961E-04 Eh
 * total energy  :   -14.4433693 Eh     change       -0.7541719E-07 Eh
 * total energy  :   -14.4433696 Eh     change       -0.3259618E-06 Eh
   *** GEOMETRY OPTIMIZATION CONVERGED AFTER 8 ITERATIONS ***

 final structure:
================
8
 xtb: 6.5.0 (97a52f5)
H           -2.27508480798348        0.67259900123092       -0.12374013707455
C           -1.41693174925225        0.15341456467212        0.29414159229976
O           -0.28224264489088        0.58939036191595       -0.45062779008847
C            0.88084318750471        0.07089242650593       -0.09822084684944
H           -1.53715253066878       -0.92728694891054        0.19897237105066
H           -1.29288127638260        0.40254007050572        1.34959035080787
O            1.07119425535343       -0.72056991589995        0.77612820970327
H            1.66719555631984        0.48911343997984       -0.74898174984909

          :  Hamiltonian                  GFN2-xTB          :
         :: total energy             -14.443369607612 Eh    ::
         :: gradient norm              0.000405756691 Eh/a0 ::
         :: HOMO-LUMO gap              5.138657032270 eV    ::
         :: SCC energy               -14.571616741071 Eh    ::
         :: -> dispersion             -0.002876770221 Eh    ::
         :: repulsion energy           0.128246788496 Eh    ::

    * Orbital Energies and Occupations

         #    Occupation            Energy/Eh            Energy/eV
      -------------------------------------------------------------
         1        2.0000           -0.7602686             -20.6880
         2        2.0000           -0.7304730             -19.8772
         3        2.0000           -0.6871079             -18.6972
         4        2.0000           -0.6229324             -16.9509
         5        2.0000           -0.6038369             -16.4312
         6        2.0000           -0.6017942             -16.3757
         7        2.0000           -0.5731266             -15.5956
         8        2.0000           -0.5261484             -14.3172
         9        2.0000           -0.5215183             -14.1912
        10        2.0000           -0.4899556             -13.3324
        11        2.0000           -0.4627950             -12.5933
        12        2.0000           -0.4340353             -11.8107 (HOMO)
        13                         -0.2451932              -6.6720 (LUMO)
        14                          0.0096953               0.2638
        15                          0.1207621               3.2861
        16                          0.1423307               3.8730
        17                          0.1834284               4.9913
        18                          0.1858640               5.0576
        19                          0.2716189               7.3911
        20                          0.6468897              17.6028
      -------------------------------------------------------------
                  HL-Gap            0.1888422 Eh            5.1387 eV

     #   Z          covCN         q      C6AA      α(0)
     1   1 H        0.925     0.076     2.022     2.224
     2   6 C        3.660     0.026    20.419     6.484
     3   8 O        1.703    -0.238    17.937     5.718
     4   6 C        2.671     0.337    21.282     7.549
     5   1 H        0.924     0.070     2.089     2.260
     6   1 H        0.924     0.070     2.089     2.260
     7   8 O        0.856    -0.371    21.118     6.161
     8   1 H        0.923     0.032     2.565     2.505

Wiberg/Mayer (AO) data.
largest (>0.10) Wiberg bond orders for each atom

     #   Z sym  total        # sym  WBO       # sym  WBO       # sym  WBO
 ---------------------------------------------------------------------------
     1   1 H    0.994 --     2 C    0.982
     2   6 C    3.920 --     1 H    0.982     6 H    0.977     5 H    0.977
                             3 O    0.949
     3   8 O    2.342 --     4 C    1.176     2 C    0.949     7 O    0.195
     4   6 C    3.922 --     7 O    1.803     3 O    1.176     8 H    0.915
     5   1 H    0.995 --     2 C    0.977
     6   1 H    0.995 --     2 C    0.977
     7   8 O    2.069 --     4 C    1.803     3 O    0.195
     8   1 H    0.999 --     4 C    0.915
 ---------------------------------------------------------------------------

molecular dipole:
                 x           y           z       tot (Debye)
 q only:       -0.733       0.350      -0.249
   full:       -0.710       0.433      -0.350       2.294

           -------------------------------------------------
          | TOTAL ENERGY              -14.443369607612 Eh   |
          | GRADIENT NORM               0.000405756691 Eh/α |
          | HOMO-LUMO GAP               5.138657032270 eV   |
           -------------------------------------------------

 * finished run on 2023/11/18 at 08:07:51.754
