                               Psi4 1.6 release

  ==> Input File <==

--------------------------------------------------------------------------
molecule {
0 1
 H   -1.783270   -0.178790   -0.437655
 C   -1.363406    0.215099    0.489694
 O   -0.093720    0.813167    0.239491
 C    0.835909    0.019690   -0.262586
 H   -1.259796   -0.602948    1.204868
 H   -1.996883    0.999712    0.894219
 O    0.715649   -1.139712   -0.524447
 H    1.760457    0.603873   -0.406323
}
memory 20GB
set_num_threads(5)
psi4_io.set_default_path("/scratch/liuchw/Psi4-35_38_Index_0-farH_in17")
set freeze_core True
E, wfn = energy('wb97x-d/6-311+G*',return_wfn=True)
oeprop(wfn,"WIBERG_LOWDIN_INDICES")
clean()
--------------------------------------------------------------------------

    Molecular point group: c1

    Geometry (in Angstrom), charge = 0, multiplicity = 1:

       Center              X                  Y                   Z               Mass
    ------------   -----------------  -----------------  -----------------  -----------------
         H           -1.788477884742    -0.152510697498    -0.428197986646     1.007825032230
         C           -1.368613884742     0.241378302502     0.499151013354    12.000000000000
         O           -0.098927884742     0.839446302502     0.248948013354    15.994914619570
         C            0.830701115258     0.045969302502    -0.253128986646    12.000000000000
         H           -1.265003884742    -0.576668697498     1.214325013354     1.007825032230
         H           -2.002090884742     1.025991302502     0.903676013354     1.007825032230
         O            0.710441115258    -1.113432697498    -0.514989986646    15.994914619570
         H            1.755249115258     0.630152302502    -0.396865986646     1.007825032230

  Charge       = 0
  Multiplicity = 1
  Basis Set: 6-311+G*
    Blend: 6-311+G*
  Basis Set: (6-311+G* AUX)
    Blend: HEAVY-AUG-CC-PVTZ-JKFIT

    Orbital Energies [Eh]
    ---------------------

    Doubly Occupied:

       1A    -19.311511     2A    -19.248756     3A    -10.420841
       4A    -10.346074     5A     -1.234087     6A     -1.142392
       7A     -0.852242     8A     -0.698512     9A     -0.637579
      10A     -0.590427    11A     -0.577082    12A     -0.521653
      13A     -0.495714    14A     -0.458407    15A     -0.405985
      16A     -0.380720

  @DF-RKS Final Energy:  -229.05345221023711

   => Energetics <=

    Nuclear Repulsion Energy =            123.0087380541568507
    One-Electron Energy =                -555.5484229612407034
    Two-Electron Energy =                 223.9768537887246396
    DFT Exchange-Correlation Energy =     -20.4889851590312659
    Empirical Dispersion Energy =          -0.0016359328466307
    VV10 Nonlocal Energy =                  0.0000000000000000
    Total Energy =                       -229.0534522102370829
 Dipole X            :          2.6495480           -3.0910143           -0.4414663
 Dipole Y            :         -0.2655766            0.8676842            0.6021076
 Dipole Z            :         -0.9140763            1.2108107            0.2967344
 Magnitude           :                                                    0.8034160
*** Psi4 exiting successfully. Buy a developer a beer!
