   * xtb version 6.5.0 (97a52f5) compiled by 'conda@d2599ee0d4f4' on 2022-05-15
          program call               : /home/liuchw/anaconda3/envs/xtbenv/bin/xtb --gfn 2 --chrg 0 --uhf 0 35_38_Index_0-opt-2-3-330_preQMOPTprefit_xyzformat.xyz --opt --input xtb-opt-2-3-330_constr.txt

   ID    Z sym.   atoms
    1    1 H      1, 5, 6, 8
    2    6 C      2, 4
    3    8 O      3, 7
constraining angle 1 2 3 4 to  329.9874578°, actual value:  -30.0125422°
constraining angle 2 3 4 7 to    0.0022287°, actual value:    0.0022287°

          :  Hamiltonian                  GFN2-xTB          :
 * total energy  :   -14.4399005 Eh     change       -0.3653255E-10 Eh
 * total energy  :   -14.4429490 Eh     change       -0.3048435E-02 Eh
 * total energy  :   -14.4433054 Eh     change       -0.3564421E-03 Eh
 * total energy  :   -14.4431763 Eh     change        0.1291508E-03 Eh
 * total energy  :   -14.4433627 Eh     change       -0.1864509E-03 Eh
 * total energy  :   -14.4433568 Eh     change        0.5885065E-05 Eh
 * total energy  :   -14.4433669 Eh     change       -0.1012756E-04 Eh
 * total energy  :   -14.4433673 Eh     change       -0.3435355E-06 Eh
   *** GEOMETRY OPTIMIZATION CONVERGED AFTER 8 ITERATIONS ***

 final structure:
================
8
 xtb: 6.5.0 (97a52f5)
H           -1.60947495710070       -0.39662944064567       -0.33639844699476
C           -1.35138403761796        0.19719022464474        0.54215833511248
O           -0.03778990951415        0.73370882491078        0.40148383653077
C            0.82551898872834        0.03052977242543       -0.30924004984263
H           -1.39516211907233       -0.43523764167113        1.43054304339730
H           -2.02767066000492        1.04185470473232        0.65120497922120
O            0.62541096797839       -1.01472891263248       -0.85221783111695
H            1.78549173660332        0.57340547823601       -0.33027086630742

          :  Hamiltonian                  GFN2-xTB          :
         :: total energy             -14.443367289468 Eh    ::
         :: gradient norm              0.000517468570 Eh/a0 ::
         :: HOMO-LUMO gap              5.168324461808 eV    ::
         :: SCC energy               -14.571505958844 Eh    ::
         :: -> dispersion             -0.002866824096 Eh    ::
         :: repulsion energy           0.128138277949 Eh    ::

    * Orbital Energies and Occupations

         #    Occupation            Energy/Eh            Energy/eV
      -------------------------------------------------------------
         1        2.0000           -0.7602217             -20.6867
         2        2.0000           -0.7307088             -19.8836
         3        2.0000           -0.6874492             -18.7064
         4        2.0000           -0.6224010             -16.9364
         5        2.0000           -0.6041147             -16.4388
         6        2.0000           -0.6016036             -16.3705
         7        2.0000           -0.5734191             -15.6035
         8        2.0000           -0.5283896             -14.3782
         9        2.0000           -0.5206434             -14.1674
        10        2.0000           -0.4881248             -13.2826
        11        2.0000           -0.4620178             -12.5721
        12        2.0000           -0.4347213             -11.8294 (HOMO)
        13                         -0.2447888              -6.6610 (LUMO)
        14                          0.0077331               0.2104
        15                          0.1211534               3.2968
        16                          0.1448482               3.9415
        17                          0.1799027               4.8954
        18                          0.1866577               5.0792
        19                          0.2750850               7.4854
        20                          0.6478516              17.6289
      -------------------------------------------------------------
                  HL-Gap            0.1899324 Eh            5.1683 eV

     #   Z          covCN         q      C6AA      α(0)
     1   1 H        0.924     0.077     2.008     2.216
     2   6 C        3.656     0.023    20.488     6.498
     3   8 O        1.703    -0.237    17.933     5.718
     4   6 C        2.666     0.337    21.272     7.547
     5   1 H        0.924     0.067     2.115     2.274
     6   1 H        0.925     0.074     2.040     2.234
     7   8 O        0.856    -0.373    21.155     6.167
     8   1 H        0.923     0.032     2.558     2.501

Wiberg/Mayer (AO) data.
largest (>0.10) Wiberg bond orders for each atom

     #   Z sym  total        # sym  WBO       # sym  WBO       # sym  WBO
 ---------------------------------------------------------------------------
     1   1 H    0.994 --     2 C    0.976
     2   6 C    3.918 --     6 H    0.980     1 H    0.976     5 H    0.976
                             3 O    0.948
     3   8 O    2.344 --     4 C    1.178     2 C    0.948     7 O    0.197
     4   6 C    3.922 --     7 O    1.800     3 O    1.178     8 H    0.915
     5   1 H    0.995 --     2 C    0.976
     6   1 H    0.995 --     2 C    0.980
     7   8 O    2.070 --     4 C    1.800     3 O    0.197
     8   1 H    0.999 --     4 C    0.915
 ---------------------------------------------------------------------------

molecular dipole:
                 x           y           z       tot (Debye)
 q only:       -0.544       0.482       0.451
   full:       -0.482       0.592       0.506       2.328

           -------------------------------------------------
          | TOTAL ENERGY              -14.443367289468 Eh   |
          | GRADIENT NORM               0.000517468570 Eh/α |
          | HOMO-LUMO GAP               5.168324461808 eV   |
           -------------------------------------------------

 * finished run on 2023/11/18 at 08:05:38.776
