   * xtb version 6.5.0 (97a52f5) compiled by 'conda@d2599ee0d4f4' on 2022-05-15
          program call               : /home/liuchw/anaconda3/envs/xtbenv/bin/xtb --gfn 2 --chrg 0 --uhf 0 35_38_Index_0-opt-2-3-270_preQMOPTprefit_xyzformat.xyz --opt --input xtb-opt-2-3-270_constr.txt

   ID    Z sym.   atoms
    1    1 H      1, 5, 6, 8
    2    6 C      2, 4
    3    8 O      3, 7
constraining angle 1 2 3 4 to  270.0111529°, actual value:  -89.9888471°
constraining angle 2 3 4 7 to  359.9970830°, actual value:   -0.0029170°

          :  Hamiltonian                  GFN2-xTB          :
 * total energy  :   -14.4399007 Eh     change       -0.3073097E-11 Eh
 * total energy  :   -14.4429460 Eh     change       -0.3045377E-02 Eh
 * total energy  :   -14.4433083 Eh     change       -0.3622970E-03 Eh
 * total energy  :   -14.4432223 Eh     change        0.8599002E-04 Eh
 * total energy  :   -14.4433595 Eh     change       -0.1372066E-03 Eh
 * total energy  :   -14.4433405 Eh     change        0.1900483E-04 Eh
 * total energy  :   -14.4433668 Eh     change       -0.2621066E-04 Eh
 * total energy  :   -14.4433672 Eh     change       -0.4536190E-06 Eh
   *** GEOMETRY OPTIMIZATION CONVERGED AFTER 8 ITERATIONS ***

 final structure:
================
8
 xtb: 6.5.0 (97a52f5)
H           -1.99222400444139        0.04229635834645       -0.45358325981194
C           -1.38552407645197        0.22218428099054        0.43561378740518
O           -0.14897484739864        0.82305321856447        0.05737479132580
C            0.85529817159101        0.00971229853549       -0.21625642098034
H           -1.20122931939421       -0.72575610790935        0.94407261612447
H           -1.88908138332091        0.92453978977731        1.09574315794605
O            0.84155856107846       -1.18444343010017       -0.18128980809092
H            1.73511589833765        0.61850560179526       -0.48441286391831

          :  Hamiltonian                  GFN2-xTB          :
         :: total energy             -14.443367208540 Eh    ::
         :: gradient norm              0.000348438818 Eh/a0 ::
         :: HOMO-LUMO gap              5.168143695936 eV    ::
         :: SCC energy               -14.571513670941 Eh    ::
         :: -> dispersion             -0.002866939299 Eh    ::
         :: repulsion energy           0.128146078371 Eh    ::

    * Orbital Energies and Occupations

         #    Occupation            Energy/Eh            Energy/eV
      -------------------------------------------------------------
         1        2.0000           -0.7602154             -20.6865
         2        2.0000           -0.7307064             -19.8835
         3        2.0000           -0.6874416             -18.7062
         4        2.0000           -0.6223997             -16.9364
         5        2.0000           -0.6041111             -16.4387
         6        2.0000           -0.6015991             -16.3703
         7        2.0000           -0.5734129             -15.6034
         8        2.0000           -0.5283666             -14.3776
         9        2.0000           -0.5206475             -14.1675
        10        2.0000           -0.4881385             -13.2829
        11        2.0000           -0.4620221             -12.5723
        12        2.0000           -0.4347216             -11.8294 (HOMO)
        13                         -0.2447958              -6.6612 (LUMO)
        14                          0.0077663               0.2113
        15                          0.1211657               3.2971
        16                          0.1448521               3.9416
        17                          0.1799199               4.8959
        18                          0.1866743               5.0797
        19                          0.2750564               7.4847
        20                          0.6478650              17.6293
      -------------------------------------------------------------
                  HL-Gap            0.1899258 Eh            5.1681 eV

     #   Z          covCN         q      C6AA      α(0)
     1   1 H        0.924     0.067     2.115     2.274
     2   6 C        3.656     0.023    20.488     6.498
     3   8 O        1.703    -0.237    17.934     5.718
     4   6 C        2.666     0.337    21.272     7.547
     5   1 H        0.924     0.077     2.009     2.216
     6   1 H        0.925     0.074     2.040     2.234
     7   8 O        0.856    -0.373    21.154     6.166
     8   1 H        0.923     0.032     2.558     2.501

Wiberg/Mayer (AO) data.
largest (>0.10) Wiberg bond orders for each atom

     #   Z sym  total        # sym  WBO       # sym  WBO       # sym  WBO
 ---------------------------------------------------------------------------
     1   1 H    0.995 --     2 C    0.976
     2   6 C    3.918 --     6 H    0.980     5 H    0.976     1 H    0.976
                             3 O    0.948
     3   8 O    2.344 --     4 C    1.178     2 C    0.948     7 O    0.197
     4   6 C    3.922 --     7 O    1.800     3 O    1.178     8 H    0.915
     5   1 H    0.994 --     2 C    0.976
     6   1 H    0.994 --     2 C    0.980
     7   8 O    2.070 --     4 C    1.800     3 O    0.197
     8   1 H    0.999 --     4 C    0.915
 ---------------------------------------------------------------------------

molecular dipole:
                 x           y           z       tot (Debye)
 q only:       -0.629       0.549       0.187
   full:       -0.592       0.679       0.163       2.327

           -------------------------------------------------
          | TOTAL ENERGY              -14.443367208540 Eh   |
          | GRADIENT NORM               0.000348438818 Eh/α |
          | HOMO-LUMO GAP               5.168143695936 eV   |
           -------------------------------------------------

 * finished run on 2023/11/18 at 08:06:50.616
