   * xtb version 6.5.0 (97a52f5) compiled by 'conda@d2599ee0d4f4' on 2022-05-15
          program call               : /home/liuchw/anaconda3/envs/xtbenv/bin/xtb --gfn 2 --chrg 0 --uhf 0 35_38_Index_0-opt-2-3-060_preQMOPTprefit_xyzformat.xyz --opt --input xtb-opt-2-3-060_constr.txt

   ID    Z sym.   atoms
    1    1 H      1, 5, 6, 8
    2    6 C      2, 4
    3    8 O      3, 7
constraining angle 1 2 3 4 to   60.0021131°, actual value:   60.0021131°
constraining angle 2 3 4 7 to    0.0009694°, actual value:    0.0009694°

          :  Hamiltonian                  GFN2-xTB          :
 * total energy  :   -14.4399933 Eh     change       -0.3499245E-10 Eh
 * total energy  :   -14.4429727 Eh     change       -0.2979390E-02 Eh
 * total energy  :   -14.4433369 Eh     change       -0.3642508E-03 Eh
 * total energy  :   -14.4433616 Eh     change       -0.2466690E-04 Eh
 * total energy  :   -14.4433558 Eh     change        0.5785266E-05 Eh
 * total energy  :   -14.4433693 Eh     change       -0.1350835E-04 Eh
 * total energy  :   -14.4433696 Eh     change       -0.3054383E-06 Eh
   *** GEOMETRY OPTIMIZATION CONVERGED AFTER 7 ITERATIONS ***

 final structure:
================
8
 xtb: 6.5.0 (97a52f5)
H           -1.50759077429761       -0.95038527497492        0.29318952488485
C           -1.31050656944091        0.06934164445500        0.62897665520244
O            0.09405487371227        0.28995843243133        0.73284761446575
C            0.79165855609547        0.14109226419926       -0.37943817196781
H           -1.72004147009972        0.23156300041300        1.62220953736052
H           -1.74921215034435        0.76688306181090       -0.08686180878969
O            0.36224580432674       -0.15774998825329       -1.45344259817336
H            1.85433173004810        0.33938984991870       -0.16021874298270

          :  Hamiltonian                  GFN2-xTB          :
         :: total energy             -14.443369618766 Eh    ::
         :: gradient norm              0.000296494972 Eh/a0 ::
         :: HOMO-LUMO gap              5.138654695616 eV    ::
         :: SCC energy               -14.571607150555 Eh    ::
         :: -> dispersion             -0.002876772627 Eh    ::
         :: repulsion energy           0.128237189446 Eh    ::

    * Orbital Energies and Occupations

         #    Occupation            Energy/Eh            Energy/eV
      -------------------------------------------------------------
         1        2.0000           -0.7602510             -20.6875
         2        2.0000           -0.7304680             -19.8770
         3        2.0000           -0.6870955             -18.6968
         4        2.0000           -0.6229159             -16.9504
         5        2.0000           -0.6038306             -16.4311
         6        2.0000           -0.6017758             -16.3752
         7        2.0000           -0.5731202             -15.5954
         8        2.0000           -0.5261392             -14.3170
         9        2.0000           -0.5215134             -14.1911
        10        2.0000           -0.4899441             -13.3321
        11        2.0000           -0.4627792             -12.5929
        12        2.0000           -0.4340574             -11.8113 (HOMO)
        13                         -0.2452153              -6.6726 (LUMO)
        14                          0.0097275               0.2647
        15                          0.1207878               3.2868
        16                          0.1423433               3.8734
        17                          0.1834023               4.9906
        18                          0.1858158               5.0563
        19                          0.2715931               7.3904
        20                          0.6468195              17.6009
      -------------------------------------------------------------
                  HL-Gap            0.1888421 Eh            5.1387 eV

     #   Z          covCN         q      C6AA      α(0)
     1   1 H        0.924     0.070     2.089     2.260
     2   6 C        3.660     0.026    20.419     6.484
     3   8 O        1.703    -0.238    17.938     5.718
     4   6 C        2.671     0.336    21.283     7.549
     5   1 H        0.925     0.076     2.022     2.224
     6   1 H        0.924     0.070     2.089     2.260
     7   8 O        0.856    -0.371    21.117     6.161
     8   1 H        0.923     0.032     2.564     2.504

Wiberg/Mayer (AO) data.
largest (>0.10) Wiberg bond orders for each atom

     #   Z sym  total        # sym  WBO       # sym  WBO       # sym  WBO
 ---------------------------------------------------------------------------
     1   1 H    0.995 --     2 C    0.977
     2   6 C    3.920 --     5 H    0.982     1 H    0.977     6 H    0.977
                             3 O    0.949
     3   8 O    2.342 --     4 C    1.176     2 C    0.949     7 O    0.195
     4   6 C    3.922 --     7 O    1.803     3 O    1.176     8 H    0.915
     5   1 H    0.994 --     2 C    0.982
     6   1 H    0.995 --     2 C    0.977
     7   8 O    2.069 --     4 C    1.803     3 O    0.195
     8   1 H    0.999 --     4 C    0.915
 ---------------------------------------------------------------------------

molecular dipole:
                 x           y           z       tot (Debye)
 q only:       -0.421       0.103       0.730
   full:       -0.335       0.136       0.826       2.293

           -------------------------------------------------
          | TOTAL ENERGY              -14.443369618766 Eh   |
          | GRADIENT NORM               0.000296494972 Eh/α |
          | HOMO-LUMO GAP               5.138654695616 eV   |
           -------------------------------------------------

 * finished run on 2023/11/18 at 08:06:14.842
