                               Psi4 1.6 release

  ==> Input File <==

--------------------------------------------------------------------------
molecule {
0 1
 H   -1.464508   -0.799518    0.045278
 C   -1.324643    0.122067    0.612897
 O    0.058963    0.463833    0.657856
 C    0.802685    0.094870   -0.369580
 H   -1.652738   -0.003237    1.642147
 H   -1.885327    0.927951    0.136158
 O    0.440836   -0.499049   -1.341048
 H    1.839673    0.423176   -0.186444
}
memory 20GB
set_num_threads(5)
psi4_io.set_default_path("/scratch/liuchw/Psi4-35_38_Index_0-farH_in17")
set freeze_core True
E, wfn = energy('wb97x-d/6-311+G*',return_wfn=True)
oeprop(wfn,"WIBERG_LOWDIN_INDICES")
clean()
--------------------------------------------------------------------------

    Molecular point group: c1

    Geometry (in Angstrom), charge = 0, multiplicity = 1:

       Center              X                  Y                   Z               Mass
    ------------   -----------------  -----------------  -----------------  -----------------
         H           -1.440234823573    -0.842713290436     0.151204764629     1.007825032230
         C           -1.300369823573     0.078871709564     0.718823764629    12.000000000000
         O            0.083236176427     0.420637709564     0.763782764629    15.994914619570
         C            0.826958176427     0.051674709564    -0.263653235371    12.000000000000
         H           -1.628464823573    -0.046432290436     1.748073764629     1.007825032230
         H           -1.861053823573     0.884755709564     0.242084764629     1.007825032230
         O            0.465109176427    -0.542244290436    -1.235121235371    15.994914619570
         H            1.863946176427     0.379980709564    -0.080517235371     1.007825032230

  Charge       = 0
  Multiplicity = 1
  Basis Set: 6-311+G*
    Blend: 6-311+G*
  Basis Set: (6-311+G* AUX)
    Blend: HEAVY-AUG-CC-PVTZ-JKFIT

    Orbital Energies [Eh]
    ---------------------

    Doubly Occupied:

       1A    -19.311312     2A    -19.248089     3A    -10.421232
       4A    -10.345218     5A     -1.233467     6A     -1.142492
       7A     -0.852830     8A     -0.698007     9A     -0.638005
      10A     -0.589719    11A     -0.577037    12A     -0.521186
      13A     -0.498760    14A     -0.455403    15A     -0.404718
      16A     -0.380835

  @DF-RKS Final Energy:  -229.05251962094286

   => Energetics <=

    Nuclear Repulsion Energy =            122.8597864002748992
    One-Electron Energy =                -555.2554841086833903
    Two-Electron Energy =                 223.8347792876911626
    DFT Exchange-Correlation Energy =     -20.4900361905842274
    Empirical Dispersion Energy =          -0.0015650096413047
    VV10 Nonlocal Energy =                  0.0000000000000000
    Total Energy =                       -229.0525196209428316
 Dipole X            :          2.5564731           -2.8714660           -0.3149929
 Dipole Y            :         -0.0671870            0.3515206            0.2843337
 Dipole Z            :         -1.2328956            1.9297155            0.6968199
 Magnitude           :                                                    0.8158579
*** Psi4 exiting successfully. Buy a developer a beer!
