                               Psi4 1.6 release

  ==> Input File <==

--------------------------------------------------------------------------
molecule {
0 1
 H   -1.695059   -1.039763    0.843475
 C   -1.310778   -0.042145    0.632183
 O    0.113462   -0.088864    0.696801
 C    0.789136    0.237304   -0.389909
 H   -1.663214    0.658301    1.388862
 H   -1.626691    0.282337   -0.360697
 O    0.342254    0.574702   -1.445439
 H    1.865831    0.148220   -0.168014
}
memory 20GB
set_num_threads(5)
psi4_io.set_default_path("/scratch/liuchw/Psi4-35_38_Index_0-farH_in17")
set freeze_core True
E, wfn = energy('wb97x-d/6-311+G*',return_wfn=True)
oeprop(wfn,"WIBERG_LOWDIN_INDICES")
clean()
--------------------------------------------------------------------------

    Molecular point group: c1

    Geometry (in Angstrom), charge = 0, multiplicity = 1:

       Center              X                  Y                   Z               Mass
    ------------   -----------------  -----------------  -----------------  -----------------
         H           -1.659836307129    -1.209075450564     0.965934474522     1.007825032230
         C           -1.275555307129    -0.211457450564     0.754642474522    12.000000000000
         O            0.148684692871    -0.258176450564     0.819260474522    15.994914619570
         C            0.824358692871     0.067991549436    -0.267449525478    12.000000000000
         H           -1.627991307129     0.488988549436     1.511321474522     1.007825032230
         H           -1.591468307129     0.113024549436    -0.238237525478     1.007825032230
         O            0.377476692871     0.405389549436    -1.322979525478    15.994914619570
         H            1.901053692871    -0.021092450564    -0.045554525478     1.007825032230

  Charge       = 0
  Multiplicity = 1
  Basis Set: 6-311+G*
    Blend: 6-311+G*
  Basis Set: (6-311+G* AUX)
    Blend: HEAVY-AUG-CC-PVTZ-JKFIT

    Orbital Energies [Eh]
    ---------------------

    Doubly Occupied:

       1A    -19.311117     2A    -19.247597     3A    -10.421691
       4A    -10.344224     5A     -1.232997     6A     -1.142603
       7A     -0.853195     8A     -0.697470     9A     -0.638530
      10A     -0.588990    11A     -0.577084    12A     -0.520163
      13A     -0.501962    14A     -0.452972    15A     -0.402961
      16A     -0.381485

  @DF-RKS Final Energy:  -229.05167780545986

   => Energetics <=

    Nuclear Repulsion Energy =            122.7476381515620147
    One-Electron Energy =                -555.0354848277083875
    Two-Electron Energy =                 223.7287928170213718
    DFT Exchange-Correlation Energy =     -20.4911117998764603
    Empirical Dispersion Energy =          -0.0015121464583888
    VV10 Nonlocal Energy =                  0.0000000000000000
    Total Energy =                       -229.0516778054598603
 Dipole X            :          2.5154266           -2.7894830           -0.2740563
 Dipole Y            :          0.3621443           -0.5881686           -0.2260243
 Dipole Z            :         -1.3117648            2.0538851            0.7421203
 Magnitude           :                                                    0.8227614
*** Psi4 exiting successfully. Buy a developer a beer!
