                               Psi4 1.6 release

  ==> Input File <==

--------------------------------------------------------------------------
molecule {
0 1
 H   -1.992224    0.042296   -0.453583
 C   -1.385524    0.222184    0.435614
 O   -0.148975    0.823053    0.057375
 C    0.855298    0.009712   -0.216256
 H   -1.201229   -0.725756    0.944073
 H   -1.889081    0.924540    1.095743
 O    0.841559   -1.184443   -0.181290
 H    1.735116    0.618506   -0.484413
}
memory 20GB
set_num_threads(5)
psi4_io.set_default_path("/scratch/liuchw/Psi4-35_38_Index_0-farH_in17")
set freeze_core True
E, wfn = energy('wb97x-d/6-311+G*',return_wfn=True)
oeprop(wfn,"WIBERG_LOWDIN_INDICES")
clean()
--------------------------------------------------------------------------

    Molecular point group: c1

    Geometry (in Angstrom), charge = 0, multiplicity = 1:

       Center              X                  Y                   Z               Mass
    ------------   -----------------  -----------------  -----------------  -----------------
         H           -2.014574434043     0.077805793445    -0.482918134984     1.007825032230
         C           -1.407874434043     0.257693793445     0.406278865016    12.000000000000
         O           -0.171325434043     0.858562793445     0.028039865016    15.994914619570
         C            0.832947565957     0.045221793445    -0.245591134984    12.000000000000
         H           -1.223579434043    -0.690246206555     0.914737865016     1.007825032230
         H           -1.911431434043     0.960049793445     1.066407865016     1.007825032230
         O            0.819208565957    -1.148933206555    -0.210625134984    15.994914619570
         H            1.712765565957     0.654015793445    -0.513748134984     1.007825032230

  Charge       = 0
  Multiplicity = 1
  Basis Set: 6-311+G*
    Blend: 6-311+G*
  Basis Set: (6-311+G* AUX)
    Blend: HEAVY-AUG-CC-PVTZ-JKFIT

    Orbital Energies [Eh]
    ---------------------

    Doubly Occupied:

       1A    -19.311298     2A    -19.248101     3A    -10.421230
       4A    -10.345223     5A     -1.233463     6A     -1.142484
       7A     -0.852822     8A     -0.698017     9A     -0.637994
      10A     -0.589715    11A     -0.577033    12A     -0.521204
      13A     -0.498720    14A     -0.455423    15A     -0.404727
      16A     -0.380840

  @DF-RKS Final Energy:  -229.05252954964124

   => Energetics <=

    Nuclear Repulsion Energy =            122.8612957971837147
    One-Electron Energy =                -555.2585587316455076
    Two-Electron Energy =                 223.8363208619874740
    DFT Exchange-Correlation Energy =     -20.4900217374732314
    Empirical Dispersion Energy =          -0.0015657396937133
    VV10 Nonlocal Energy =                  0.0000000000000000
    Total Energy =                       -229.0525295496412355
 Dipole X            :          2.7113428           -3.2188005           -0.5074577
 Dipole Y            :         -0.3148965            0.9375978            0.6227013
 Dipole Z            :         -0.7807136            0.9220421            0.1413285
 Magnitude           :                                                    0.8156249
*** Psi4 exiting successfully. Buy a developer a beer!
