                               Psi4 1.6 release

  ==> Input File <==

--------------------------------------------------------------------------
molecule {
0 1
 H   -2.196260    0.840691    0.041724
 C   -1.428336    0.102966    0.262708
 O   -0.299278    0.424444   -0.546667
 C    0.891827    0.113032   -0.067999
 H   -1.785845   -0.896974    0.010905
 H   -1.152933    0.132594    1.318330
 O    1.130221   -0.412972    0.977906
 H    1.655543    0.426312   -0.799645
}
memory 20GB
set_num_threads(5)
psi4_io.set_default_path("/scratch/liuchw/Psi4-35_38_Index_0-farH_in17")
set freeze_core True
E, wfn = energy('wb97x-d/6-311+G*',return_wfn=True)
oeprop(wfn,"WIBERG_LOWDIN_INDICES")
clean()
--------------------------------------------------------------------------

    Molecular point group: c1

    Geometry (in Angstrom), charge = 0, multiplicity = 1:

       Center              X                  Y                   Z               Mass
    ------------   -----------------  -----------------  -----------------  -----------------
         H           -2.252007571121     0.786009827949    -0.121717168791     1.007825032230
         C           -1.484083571121     0.048284827949     0.099266831209    12.000000000000
         O           -0.355025571121     0.369762827949    -0.710108168791    15.994914619570
         C            0.836079428879     0.058350827949    -0.231440168791    12.000000000000
         H           -1.841592571121    -0.951655172051    -0.152536168791     1.007825032230
         H           -1.208680571121     0.077912827949     1.154888831209     1.007825032230
         O            1.074473428879    -0.467653172051     0.814464831209    15.994914619570
         H            1.599795428879     0.371630827949    -0.963086168791     1.007825032230

  Charge       = 0
  Multiplicity = 1
  Basis Set: 6-311+G*
    Blend: 6-311+G*
  Basis Set: (6-311+G* AUX)
    Blend: HEAVY-AUG-CC-PVTZ-JKFIT

    Orbital Energies [Eh]
    ---------------------

    Doubly Occupied:

       1A    -19.311312     2A    -19.248072     3A    -10.421244
       4A    -10.345197     5A     -1.233456     6A     -1.142498
       7A     -0.852843     8A     -0.697991     9A     -0.638021
      10A     -0.589700    11A     -0.577040    12A     -0.521169
      13A     -0.498838    14A     -0.455338    15A     -0.404679
      16A     -0.380841

  @DF-RKS Final Energy:  -229.05249832020408

   => Energetics <=

    Nuclear Repulsion Energy =            122.8562247730857706
    One-Electron Energy =                -555.2484429029691455
    Two-Electron Energy =                 223.8313429000309895
    DFT Exchange-Correlation Energy =     -20.4900596409654199
    Empirical Dispersion Energy =          -0.0015634493862788
    VV10 Nonlocal Energy =                  0.0000000000000000
    Total Energy =                       -229.0524983202040801
 Dipole X            :          2.8184144           -3.4675100           -0.6490956
 Dipole Y            :         -0.0080498            0.2656756            0.2576259
 Dipole Z            :         -0.3456195           -0.0767936           -0.4224130
 Magnitude           :                                                    0.8161673
*** Psi4 exiting successfully. Buy a developer a beer!
