                               Psi4 1.6 release

  ==> Input File <==

--------------------------------------------------------------------------
molecule {
0 1
 H   -1.507591   -0.950385    0.293190
 C   -1.310507    0.069342    0.628977
 O    0.094055    0.289958    0.732848
 C    0.791659    0.141092   -0.379438
 H   -1.720041    0.231563    1.622210
 H   -1.749212    0.766883   -0.086862
 O    0.362246   -0.157750   -1.453443
 H    1.854332    0.339390   -0.160219
}
memory 20GB
set_num_threads(5)
psi4_io.set_default_path("/scratch/liuchw/Psi4-35_38_Index_0-farH_in17")
set freeze_core True
E, wfn = energy('wb97x-d/6-311+G*',return_wfn=True)
oeprop(wfn,"WIBERG_LOWDIN_INDICES")
clean()
--------------------------------------------------------------------------

    Molecular point group: c1

    Geometry (in Angstrom), charge = 0, multiplicity = 1:

       Center              X                  Y                   Z               Mass
    ------------   -----------------  -----------------  -----------------  -----------------
         H           -1.473026068566    -1.034194594080     0.407316707086     1.007825032230
         C           -1.275942068566    -0.014467594080     0.743103707086    12.000000000000
         O            0.128619931434     0.206148405920     0.846974707086    15.994914619570
         C            0.826223931434     0.057282405920    -0.265311292914    12.000000000000
         H           -1.685476068566     0.147753405920     1.736336707086     1.007825032230
         H           -1.714647068566     0.683073405920     0.027264707086     1.007825032230
         O            0.396810931434    -0.241559594080    -1.339316292914    15.994914619570
         H            1.888896931434     0.255580405920    -0.046092292914     1.007825032230

  Charge       = 0
  Multiplicity = 1
  Basis Set: 6-311+G*
    Blend: 6-311+G*
  Basis Set: (6-311+G* AUX)
    Blend: HEAVY-AUG-CC-PVTZ-JKFIT

    Orbital Energies [Eh]
    ---------------------

    Doubly Occupied:

       1A    -19.311498     2A    -19.248765     3A    -10.420841
       4A    -10.346065     5A     -1.234086     6A     -1.142402
       7A     -0.852237     8A     -0.698514     9A     -0.637580
      10A     -0.590422    11A     -0.577084    12A     -0.521657
      13A     -0.495712    14A     -0.458401    15A     -0.405979
      16A     -0.380731

  @DF-RKS Final Energy:  -229.05345236988930

   => Energetics <=

    Nuclear Repulsion Energy =            123.0098269714830366
    One-Electron Energy =                -555.5506041499550065
    Two-Electron Energy =                 223.9779644460069505
    DFT Exchange-Correlation Energy =     -20.4890036967488172
    Empirical Dispersion Energy =          -0.0016359406754712
    VV10 Nonlocal Energy =                  0.0000000000000000
    Total Energy =                       -229.0534523698892997
 Dipole X            :          2.5246113           -2.7951207           -0.2705094
 Dipole Y            :          0.0786962            0.0487776            0.1274738
 Dipole Z            :         -1.2441178            1.9895937            0.7454759
 Magnitude           :                                                    0.8032180
*** Psi4 exiting successfully. Buy a developer a beer!
