                               Psi4 1.6 release

  ==> Input File <==

--------------------------------------------------------------------------
molecule {
0 1
 H   -2.275085    0.672599   -0.123740
 C   -1.416932    0.153415    0.294142
 O   -0.282243    0.589390   -0.450628
 C    0.880843    0.070892   -0.098221
 H   -1.537153   -0.927287    0.198972
 H   -1.292881    0.402540    1.349590
 O    1.071194   -0.720570    0.776128
 H    1.667196    0.489113   -0.748982
}
memory 20GB
set_num_threads(5)
psi4_io.set_default_path("/scratch/liuchw/Psi4-35_38_Index_0-farH_in17")
set freeze_core True
E, wfn = energy('wb97x-d/6-311+G*',return_wfn=True)
oeprop(wfn,"WIBERG_LOWDIN_INDICES")
clean()
--------------------------------------------------------------------------

    Molecular point group: c1

    Geometry (in Angstrom), charge = 0, multiplicity = 1:

       Center              X                  Y                   Z               Mass
    ------------   -----------------  -----------------  -----------------  -----------------
         H           -2.320424217279     0.652015908931    -0.261000415877     1.007825032230
         C           -1.462271217279     0.132831908931     0.156881584123    12.000000000000
         O           -0.327582217279     0.568806908931    -0.587888415877    15.994914619570
         C            0.835503782721     0.050308908931    -0.235481415877    12.000000000000
         H           -1.582492217279    -0.947870091069     0.061711584123     1.007825032230
         H           -1.338220217279     0.381956908931     1.212329584123     1.007825032230
         O            1.025854782721    -0.741153091069     0.638867584123    15.994914619570
         H            1.621856782721     0.468529908931    -0.886242415877     1.007825032230

  Charge       = 0
  Multiplicity = 1
  Basis Set: 6-311+G*
    Blend: 6-311+G*
  Basis Set: (6-311+G* AUX)
    Blend: HEAVY-AUG-CC-PVTZ-JKFIT

    Orbital Energies [Eh]
    ---------------------

    Doubly Occupied:

       1A    -19.311529     2A    -19.248750     3A    -10.420829
       4A    -10.346082     5A     -1.234113     6A     -1.142429
       7A     -0.852248     8A     -0.698503     9A     -0.637599
      10A     -0.590449    11A     -0.577094    12A     -0.521644
      13A     -0.495729    14A     -0.458418    15A     -0.406000
      16A     -0.380712

  @DF-RKS Final Energy:  -229.05345093035322

   => Energetics <=

    Nuclear Repulsion Energy =            123.0102100111220409
    One-Electron Energy =                -555.5510482070147873
    Two-Electron Energy =                 223.9780572436091859
    DFT Exchange-Correlation Energy =     -20.4890340598030249
    Empirical Dispersion Energy =          -0.0016359182665852
    VV10 Nonlocal Energy =                  0.0000000000000000
    Total Energy =                       -229.0534509303531934
 Dipole X            :          2.7762362           -3.3896092           -0.6133730
 Dipole Y            :         -0.1197369            0.5191230            0.3993862
 Dipole Z            :         -0.4505935            0.1191145           -0.3314790
 Magnitude           :                                                    0.8035011
*** Psi4 exiting successfully. Buy a developer a beer!
