   * xtb version 6.5.0 (97a52f5) compiled by 'conda@d2599ee0d4f4' on 2022-05-15
          program call               : /home/liuchw/anaconda3/envs/xtbenv/bin/xtb --gfn 2 --chrg 0 --uhf 0 35_38_Index_0-opt-2-3-120_preQMOPTprefit_xyzformat.xyz --opt --input xtb-opt-2-3-120_constr.txt

   ID    Z sym.   atoms
    1    1 H      1, 5, 6, 8
    2    6 C      2, 4
    3    8 O      3, 7
constraining angle 1 2 3 4 to  120.0001308°, actual value:  120.0001308°
constraining angle 2 3 4 7 to    0.0005529°, actual value:    0.0005529°

          :  Hamiltonian                  GFN2-xTB          :
 * total energy  :   -14.4397958 Eh     change       -0.3229772E-10 Eh
 * total energy  :   -14.4429417 Eh     change       -0.3145859E-02 Eh
 * total energy  :   -14.4433372 Eh     change       -0.3955160E-03 Eh
 * total energy  :   -14.4433681 Eh     change       -0.3091423E-04 Eh
 * total energy  :   -14.4433513 Eh     change        0.1686138E-04 Eh
 * total energy  :   -14.4433762 Eh     change       -0.2492424E-04 Eh
 * total energy  :   -14.4433720 Eh     change        0.4155524E-05 Eh
 * total energy  :   -14.4433781 Eh     change       -0.6057188E-05 Eh
 * total energy  :   -14.4433781 Eh     change       -0.5927262E-07 Eh
   *** GEOMETRY OPTIMIZATION CONVERGED AFTER 9 ITERATIONS ***

 final structure:
================
8
 xtb: 6.5.0 (97a52f5)
H           -1.69505930186645       -1.03976260283503        0.84347489663422
C           -1.31077848815761       -0.04214502251565        0.63218309544273
O            0.11346195371550       -0.08886436931009        0.69680102581315
C            0.78913641547782        0.23730431126351       -0.38990899782425
H           -1.66321436830531        0.65830090755694        1.38886236626997
H           -1.62669073963048        0.28233655532360       -0.36069656291874
O            0.34225393653273        0.57470249001441       -1.44543923521437
H            1.86583060223382        0.14821972050230       -0.16801357820272

          :  Hamiltonian                  GFN2-xTB          :
         :: total energy             -14.443378147334 Eh    ::
         :: gradient norm              0.000099403813 Eh/a0 ::
         :: HOMO-LUMO gap              5.201566684853 eV    ::
         :: SCC energy               -14.571449109455 Eh    ::
         :: -> dispersion             -0.002857533680 Eh    ::
         :: repulsion energy           0.128070577784 Eh    ::

    * Orbital Energies and Occupations

         #    Occupation            Energy/Eh            Energy/eV
      -------------------------------------------------------------
         1        2.0000           -0.7602093             -20.6863
         2        2.0000           -0.7310353             -19.8925
         3        2.0000           -0.6876770             -18.7126
         4        2.0000           -0.6219440             -16.9240
         5        2.0000           -0.6044199             -16.4471
         6        2.0000           -0.6014643             -16.3667
         7        2.0000           -0.5737333             -15.6121
         8        2.0000           -0.5300060             -14.4222
         9        2.0000           -0.5203359             -14.1591
        10        2.0000           -0.4865380             -13.2394
        11        2.0000           -0.4609177             -12.5422
        12        2.0000           -0.4357391             -11.8571 (HOMO)
        13                         -0.2445851              -6.6555 (LUMO)
        14                          0.0057390               0.1562
        15                          0.1215416               3.3073
        16                          0.1478332               4.0227
        17                          0.1783795               4.8540
        18                          0.1861367               5.0650
        19                          0.2783855               7.5753
        20                          0.6484764              17.6459
      -------------------------------------------------------------
                  HL-Gap            0.1911541 Eh            5.2016 eV

     #   Z          covCN         q      C6AA      α(0)
     1   1 H        0.925     0.070     2.085     2.258
     2   6 C        3.652     0.019    20.555     6.511
     3   8 O        1.703    -0.237    17.930     5.717
     4   6 C        2.663     0.338    21.259     7.544
     5   1 H        0.925     0.070     2.083     2.257
     6   1 H        0.924     0.082     1.962     2.190
     7   8 O        0.856    -0.375    21.188     6.171
     8   1 H        0.923     0.033     2.550     2.497

Wiberg/Mayer (AO) data.
largest (>0.10) Wiberg bond orders for each atom

     #   Z sym  total        # sym  WBO       # sym  WBO       # sym  WBO
 ---------------------------------------------------------------------------
     1   1 H    0.995 --     2 C    0.977
     2   6 C    3.916 --     5 H    0.977     1 H    0.977     6 H    0.975
                             3 O    0.947
     3   8 O    2.347 --     4 C    1.181     2 C    0.947     7 O    0.198
     4   6 C    3.922 --     7 O    1.796     3 O    1.181     8 H    0.915
     5   1 H    0.995 --     2 C    0.977
     6   1 H    0.993 --     2 C    0.975
     7   8 O    2.072 --     4 C    1.796     3 O    0.198
     8   1 H    0.999 --     4 C    0.915
 ---------------------------------------------------------------------------

molecular dipole:
                 x           y           z       tot (Debye)
 q only:       -0.419      -0.215       0.716
   full:       -0.334      -0.251       0.825       2.350

           -------------------------------------------------
          | TOTAL ENERGY              -14.443378147334 Eh   |
          | GRADIENT NORM               0.000099403813 Eh/α |
          | HOMO-LUMO GAP               5.201566684853 eV   |
           -------------------------------------------------

 * finished run on 2023/11/18 at 08:06:36.640
