                               Psi4 1.6 release

  ==> Input File <==

--------------------------------------------------------------------------
molecule {
0 1
H -1.774028277812 -0.182574908928 -0.44331609055
C -1.36544692021 0.208925140954 0.488792538913
O -0.094718792765 0.8478234895 0.248962265254
C 0.841552936258 0.028644219458 -0.26251607168
H -1.249778537572 -0.607472228568 1.202356669216
H -2.003908419981 0.990089379105 0.893912600117
O 0.690808176686 -1.148917701955 -0.519122080011
H 1.770459436424 0.593575639468 -0.411809452167
}
memory 20GB
set_num_threads(5)
psi4_io.set_default_path("/scratch/liuchw/Psi4-35_38_Index_0-farH_in17")
set maxiter 500
set freeze_core True
set PROPERTIES_ORIGIN ["COM"]
set cubeprop_tasks ['esp']
set basis aug-cc-pVTZ
E, wfn = properties('mp2',properties=['dipole','GRID_ESP','WIBERG_LOWDIN_INDICES','MULLIKEN_CHARGES'],return_wfn=True)
cubeprop(wfn)
fchk(wfn, "35_38_Index_0-esp.fchk")
clean()
--------------------------------------------------------------------------

    Molecular point group: c1
  Charge       = 0
  Multiplicity = 1
  Basis Set: AUG-CC-PVTZ
    Blend: AUG-CC-PVTZ
  Basis Set: (AUG-CC-PVTZ AUX)
    Blend: AUG-CC-PVTZ-JKFIT

    Orbital Energies [Eh]
    ---------------------

    Doubly Occupied:

       1A    -20.618551     2A    -20.560241     3A    -11.389179
       4A    -11.293193     5A     -1.465368     6A     -1.366358
       7A     -0.989285     8A     -0.822828     9A     -0.737759
      10A     -0.680210    11A     -0.675600    12A     -0.595137
      13A     -0.552830    14A     -0.540558    15A     -0.471352
      16A     -0.466776

  @DF-RHF Final Energy:  -227.87760953050832

   => Energetics <=

    Nuclear Repulsion Energy =            121.9385461520797236
    One-Electron Energy =                -553.1818640985343336
    Two-Electron Energy =                 203.3657084159463011
    Total Energy =                       -227.8776095305083231
  Basis Set: (AUG-CC-PVTZ AUX)
    Blend: AUG-CC-PVTZ-RI
    Molecular point group: c1

    Geometry (in Angstrom), charge = 0, multiplicity = 1:

       Center              X                  Y                   Z               Mass
    ------------   -----------------  -----------------  -----------------  -----------------
         H           -1.773443934650    -0.163159813920    -0.437401342671     1.007825032230
         C           -1.364862577048     0.228340235962     0.494707286792    12.000000000000
         O           -0.094134449603     0.867238584508     0.254877013133    15.994914619570
         C            0.842137279420     0.048059314466    -0.256601323801    12.000000000000
         H           -1.249194194410    -0.588057133560     1.208271417095     1.007825032230
         H           -2.003324076819     1.009504474113     0.899827347996     1.007825032230
         O            0.691392519848    -1.129502606947    -0.513207332132    15.994914619570
         H            1.771043779586     0.612990734476    -0.405894704288     1.007825032230

  Basis Set: AUG-CC-PVTZ
    Blend: AUG-CC-PVTZ
  Basis Set: (AUG-CC-PVTZ AUX)
    Blend: AUG-CC-PVTZ-JKFIT
	 Reference Energy          =    -227.8776095305083231 [Eh]
	 Singles Energy            =      -0.0000000000000000 [Eh]
	 Same-Spin Energy          =      -0.2015057232938879 [Eh]
	 Opposite-Spin Energy      =      -0.6155615403795899 [Eh]
	 Correlation Energy        =      -0.8170672636734778 [Eh]
	 Total Energy              =    -228.6946767941817882 [Eh]

	 ================> DF-SCS-MP2 Energies <==================
	-----------------------------------------------------------
	 SCS Same-Spin Scale       =       0.3333333333333333 [-]
	 SCS Opposite-Spin Scale   =       1.2000000000000000 [-]
	 SCS Same-Spin Energy      =      -0.0671685744312960 [Eh]
	 SCS Opposite-Spin Energy  =      -0.7386738484555079 [Eh]
	 SCS Correlation Energy    =      -0.8058424228868039 [Eh]
	 SCS Total Energy          =    -228.6834519533951209 [Eh]
	-----------------------------------------------------------

 Dipole X            :          2.6717017           -3.0485169           -0.3768152
 Dipole Y            :         -0.2645073            0.8155366            0.5510293
 Dipole Z            :         -0.9216258            1.1844727            0.2628468
 Magnitude           :                                                    0.7174340

  Mulliken Charges: (a.u.)
   Center  Symbol    Alpha    Beta     Spin     Total
       1     H     0.33077  0.33077  0.00000  0.33845
       2     C     3.37068  3.37068  0.00000 -0.74135
       3     O     4.11574  4.11574  0.00000 -0.23148
       4     C     3.09678  3.09678  0.00000 -0.19355
       5     H     0.33086  0.33086  0.00000  0.33828
       6     H     0.31077  0.31077  0.00000  0.37846
       7     O     4.24255  4.24255  0.00000 -0.48509
       8     H     0.20186  0.20186  0.00000  0.59628

   Total alpha = 16.00000, Total beta = 16.00000, Total charge =  0.00000

  Basis Set: AUG-CC-PVTZ
    Blend: AUG-CC-PVTZ
*** Psi4 exiting successfully. Buy a developer a beer!
