   * xtb version 6.5.0 (97a52f5) compiled by 'conda@d2599ee0d4f4' on 2022-05-15
          program call               : /home/liuchw/anaconda3/envs/xtbenv/bin/xtb --gfn 2 --chrg 0 --uhf 0 1_7_Index_0-opt-2-3-316_preQMOPTprefit_xyzformat.xyz --opt --input xtb-opt-2-3-316_constr.txt

   ID    Z sym.   atoms
    1    1 H      1, 21, 23-34
    2    7 N      2, 8
    3    6 C      3-7, 9-20
    4    8 O      22
constraining angle 1 2 3 4 to  316.1191138°, actual value:  -43.8808862°
constraining angle 5 2 3 4 to   93.0682773°, actual value:   93.0682773°
constraining angle 1 2 5 17 to  331.9177520°, actual value:  -28.0822480°
constraining angle 3 2 5 17 to  195.0677261°, actual value: -164.9322739°
constraining angle 2 3 4 12 to  262.0812020°, actual value:  -97.9187980°
constraining angle 2 3 6 7 to  182.9905648°, actual value: -177.0094352°

          :  Hamiltonian                  GFN2-xTB          :
 * total energy  :   -53.4063813 Eh     change       -0.1308251E-08 Eh
 * total energy  :   -53.4179067 Eh     change       -0.1152541E-01 Eh
 * total energy  :   -53.4196467 Eh     change       -0.1740001E-02 Eh
 * total energy  :   -53.4197779 Eh     change       -0.1312045E-03 Eh
 * total energy  :   -53.4201416 Eh     change       -0.3636465E-03 Eh
 * total energy  :   -53.4201996 Eh     change       -0.5804992E-04 Eh
 * total energy  :   -53.4203034 Eh     change       -0.1037557E-03 Eh
 * total energy  :   -53.4203597 Eh     change       -0.5632648E-04 Eh
 * total energy  :   -53.4203968 Eh     change       -0.3708793E-04 Eh
 * total energy  :   -53.4204276 Eh     change       -0.3075726E-04 Eh
 * total energy  :   -53.4204561 Eh     change       -0.2850113E-04 Eh
 * total energy  :   -53.4204818 Eh     change       -0.2574406E-04 Eh
 * total energy  :   -53.4205014 Eh     change       -0.1958835E-04 Eh
 * total energy  :   -53.4205129 Eh     change       -0.1147798E-04 Eh
 * total energy  :   -53.4205214 Eh     change       -0.8522099E-05 Eh
 * total energy  :   -53.4205255 Eh     change       -0.4129131E-05 Eh
   *** GEOMETRY OPTIMIZATION CONVERGED AFTER 16 ITERATIONS ***

 final structure:
================
34
 xtb: 6.5.0 (97a52f5)
H            0.52781313935481       -1.91939750756352        1.18011016573644
N            0.57510322690498       -0.90962536552718        1.07197770686516
C           -0.65805566389971       -0.38540465605511        0.67882890116956
C           -1.38040141769260       -1.12479613478749       -0.38547150977249
C            1.79210778231488       -0.50765346319085        0.52598642034202
C           -1.10502229641474        0.80622702490486        1.13870005772937
C           -2.37379967149667        1.44245750410657        0.86858529449762
N           -1.30184830408907        2.68246977019868        2.39274649427039
C           -0.42139271409903        1.65050618138223        2.15136835824346
C           -2.44831726052292        2.54566246323830        1.63331479326591
C           -2.08800311948016       -2.28887284936086       -0.10552938674708
C           -1.28447133078209       -0.68291609337940       -1.70029549941875
C           -2.70869143843903       -2.99076579062233       -1.12337187956168
C           -1.90181149135339       -1.39101195451824       -2.71575853463413
C           -2.61548339658705       -2.54300966766031       -2.43032058052859
C            1.93484993316968        0.68544001729308       -0.17689190603841
C            2.91689192188819       -1.30034617436435        0.74939247799144
C            3.17366696669307        1.06188647084639       -0.65882750378707
C            4.15047732984666       -0.91535988678918        0.26459318982903
C            4.28642989919434        0.26713913386703       -0.44363721415497
H           -1.12244816757605        3.42682906814492        3.04538816880101
O            0.65750835741373        1.51892403397315        2.68619470748564
H           -2.16223514420509       -2.63277623339115        0.91657975193923
H           -0.72743621505135        0.21506077038799       -1.92203141471476
H           -3.26518391475028       -3.88806894466999       -0.89600680546485
H           -1.82365855296126       -1.04187701197945       -3.73478219032566
H           -3.09820248095416       -3.09134995103022       -3.22553325438893
H            1.07529878255569        1.31696482608150       -0.34192742453368
H            2.81375480170087       -2.22205091110457        1.30500773052227
H            3.27037235889891        1.98836544798473       -1.20623576035581
H            5.01248280158427       -1.54118727440701        0.44469603619225
H           -3.10923564172886        1.07651401636033        0.18041675589180
H           -3.24004536246934        3.26669747345925        1.71466536832176
H            5.25238029303311        0.56832166817162       -0.81987151466787

          :  Hamiltonian                  GFN2-xTB          :
         :: total energy             -53.420525530892 Eh    ::
         :: gradient norm              0.000677765118 Eh/a0 ::
         :: HOMO-LUMO gap              2.071564870389 eV    ::
         :: SCC energy               -54.346374142526 Eh    ::
         :: -> dispersion             -0.038971125966 Eh    ::
         :: repulsion energy           0.925352089594 Eh    ::

    * Orbital Energies and Occupations

         #    Occupation            Energy/Eh            Energy/eV
      -------------------------------------------------------------
         1        2.0000           -0.6907619             -18.7966
       ...           ...                  ...                  ...
        37        2.0000           -0.4636988             -12.6179
        38        2.0000           -0.4469173             -12.1612
        39        2.0000           -0.4394803             -11.9589
        40        2.0000           -0.4305396             -11.7156
        41        2.0000           -0.4253637             -11.5747
        42        2.0000           -0.4208353             -11.4515
        43        2.0000           -0.4165831             -11.3358
        44        2.0000           -0.4142531             -11.2724
        45        2.0000           -0.4113501             -11.1934
        46        2.0000           -0.3938183             -10.7163
        47        2.0000           -0.3868275             -10.5261
        48        2.0000           -0.3711839             -10.1004
        49        2.0000           -0.3539937              -9.6327 (HOMO)
        50                         -0.2778651              -7.5611 (LUMO)
        51                         -0.2356624              -6.4127
        52                         -0.2347439              -6.3877
        53                         -0.2114003              -5.7525
        54                         -0.2008463              -5.4653
        55                         -0.1754490              -4.7742
        56                         -0.1264327              -3.4404
        57                         -0.1061276              -2.8879
        58                         -0.0774305              -2.1070
        59                          0.0247839               0.6744
        60                          0.0355199               0.9665
       ...                                ...                  ...
        94                          0.7544337              20.5292
      -------------------------------------------------------------
                  HL-Gap            0.0761286 Eh            2.0716 eV

     #   Z          covCN         q      C6AA      α(0)
     1   1 H        0.860     0.164     1.313     1.795
     2   7 N        2.697    -0.158    24.410     7.338
     3   6 C        2.890     0.080    26.214     8.394
     4   6 C        2.978     0.004    27.937     8.670
     5   6 C        2.908     0.082    26.183     8.390
     6   6 C        3.075    -0.040    28.913     8.816
     7   6 C        2.973    -0.074    29.832     8.959
     8   7 N        2.769    -0.151    24.254     7.314
     9   6 C        2.849     0.272    22.408     7.758
    10   6 C        2.975     0.016    27.650     8.625
    11   6 C        2.923    -0.033    28.829     8.805
    12   6 C        2.924    -0.028    28.700     8.785
    13   6 C        2.919    -0.028    28.699     8.785
    14   6 C        2.920    -0.027    28.674     8.781
    15   6 C        2.920    -0.029    28.725     8.789
    16   6 C        2.922    -0.045    29.114     8.848
    17   6 C        2.926    -0.054    29.343     8.883
    18   6 C        2.921    -0.028    28.694     8.784
    19   6 C        2.920    -0.028    28.703     8.786
    20   6 C        2.919    -0.041    29.026     8.835
    21   1 H        0.860     0.173     1.255     1.755
    22   8 O        0.857    -0.416    22.012     6.290
    23   1 H        0.926     0.032     2.564     2.504
    24   1 H        0.926     0.036     2.501     2.473
    25   1 H        0.926     0.035     2.515     2.480
    26   1 H        0.926     0.037     2.494     2.470
    27   1 H        0.926     0.035     2.518     2.481
    28   1 H        0.926     0.026     2.650     2.546
    29   1 H        0.926     0.025     2.656     2.549
    30   1 H        0.926     0.029     2.599     2.521
    31   1 H        0.926     0.030     2.588     2.516
    32   1 H        0.926     0.037     2.491     2.468
    33   1 H        0.926     0.041     2.432     2.439
    34   1 H        0.926     0.028     2.619     2.531

Wiberg/Mayer (AO) data.
largest (>0.10) Wiberg bond orders for each atom

     #   Z sym  total        # sym  WBO       # sym  WBO       # sym  WBO
 ---------------------------------------------------------------------------
     1   1 H    0.971 --     2 N    0.931
     2   7 N    3.376 --     3 C    1.088     5 C    1.085     1 H    0.931
     3   6 C    3.971 --     6 C    1.611     2 N    1.088     4 C    1.000
     4   6 C    3.987 --    11 C    1.403    12 C    1.396     3 C    1.000
                            15 C    0.110
     5   6 C    3.960 --    16 C    1.362    17 C    1.355     2 N    1.085
     6   6 C    3.980 --     3 C    1.611     7 C    1.135     9 C    1.008
     7   6 C    3.977 --    10 C    1.708     6 C    1.135    32 H    0.971
     8   7 N    3.504 --     9 C    1.149    10 C    1.135    21 H    0.941
                            22 O    0.149
     9   6 C    3.947 --    22 O    1.685     8 N    1.149     6 C    1.008
    10   6 C    3.950 --     7 C    1.708     8 N    1.135    33 H    0.969
    11   6 C    3.989 --    13 C    1.445     4 C    1.403    23 H    0.970
                            14 C    0.111
    12   6 C    3.991 --    14 C    1.444     4 C    1.396    24 H    0.969
                            13 C    0.112
    13   6 C    3.991 --    11 C    1.445    15 C    1.439    25 H    0.970
                            12 C    0.112
    14   6 C    3.991 --    12 C    1.444    15 C    1.438    26 H    0.970
                            11 C    0.111
    15   6 C    3.990 --    13 C    1.439    14 C    1.438    27 H    0.971
                             4 C    0.110
    16   6 C    3.989 --    18 C    1.454     5 C    1.362    28 H    0.967
                            19 C    0.105
    17   6 C    3.985 --    19 C    1.461     5 C    1.355    29 H    0.968
                            18 C    0.105
    18   6 C    3.993 --    16 C    1.454    20 C    1.432    30 H    0.971
                            17 C    0.105
    19   6 C    3.991 --    17 C    1.461    20 C    1.426    31 H    0.971
                            16 C    0.105
    20   6 C    3.984 --    18 C    1.432    19 C    1.426    34 H    0.972
    21   1 H    0.969 --     8 N    0.941
    22   8 O    2.033 --     9 C    1.685     8 N    0.149
    23   1 H    0.999 --    11 C    0.970
    24   1 H    0.999 --    12 C    0.969
    25   1 H    0.998 --    13 C    0.970
    26   1 H    0.998 --    14 C    0.970
    27   1 H    0.998 --    15 C    0.971
    28   1 H    0.999 --    16 C    0.967
    29   1 H    0.999 --    17 C    0.968
    30   1 H    0.999 --    18 C    0.971
    31   1 H    0.998 --    19 C    0.971
    32   1 H    0.999 --     7 C    0.971
    33   1 H    0.998 --    10 C    0.969
    34   1 H    0.999 --    20 C    0.972
 ---------------------------------------------------------------------------

molecular dipole:
                 x           y           z       tot (Debye)
 q only:       -1.103      -0.382      -0.703
   full:       -1.345      -0.338      -0.737       3.991

           -------------------------------------------------
          | TOTAL ENERGY              -53.420525530892 Eh   |
          | GRADIENT NORM               0.000677765118 Eh/α |
          | HOMO-LUMO GAP               2.071564870389 eV   |
           -------------------------------------------------

 * finished run on 2023/11/18 at 09:11:11.628
