                               Psi4 1.6 release

  ==> Input File <==

--------------------------------------------------------------------------
molecule {
0 1
 H    0.527813   -1.919398    1.180110
 N    0.575103   -0.909625    1.071978
 C   -0.658056   -0.385405    0.678829
 C   -1.380401   -1.124796   -0.385472
 C    1.792108   -0.507653    0.525986
 C   -1.105022    0.806227    1.138700
 C   -2.373800    1.442458    0.868585
 N   -1.301848    2.682470    2.392746
 C   -0.421393    1.650506    2.151368
 C   -2.448317    2.545662    1.633315
 C   -2.088003   -2.288873   -0.105529
 C   -1.284471   -0.682916   -1.700295
 C   -2.708691   -2.990766   -1.123372
 C   -1.901811   -1.391012   -2.715759
 C   -2.615483   -2.543010   -2.430321
 C    1.934850    0.685440   -0.176892
 C    2.916892   -1.300346    0.749392
 C    3.173667    1.061886   -0.658828
 C    4.150477   -0.915360    0.264593
 C    4.286430    0.267139   -0.443637
 H   -1.122448    3.426829    3.045388
 O    0.657508    1.518924    2.686195
 H   -2.162235   -2.632776    0.916580
 H   -0.727436    0.215061   -1.922031
 H   -3.265184   -3.888069   -0.896007
 H   -1.823659   -1.041877   -3.734782
 H   -3.098202   -3.091350   -3.225533
 H    1.075299    1.316965   -0.341927
 H    2.813755   -2.222051    1.305008
 H    3.270372    1.988365   -1.206236
 H    5.012483   -1.541187    0.444696
 H   -3.109236    1.076514    0.180417
 H   -3.240045    3.266697    1.714665
 H    5.252380    0.568322   -0.819872
}
memory 20GB
set_num_threads(5)
psi4_io.set_default_path("/scratch/liuchw/Psi4-1_7_Index_0-farH_in17")
set freeze_core True
E, wfn = energy('wb97x-d/6-311+G*',return_wfn=True)
oeprop(wfn,"WIBERG_LOWDIN_INDICES")
clean()
--------------------------------------------------------------------------

    Molecular point group: c1

    Geometry (in Angstrom), charge = 0, multiplicity = 1:

       Center              X                  Y                   Z               Mass
    ------------   -----------------  -----------------  -----------------  -----------------
         H            0.562276225250    -1.829960630640     0.923178817097     1.007825032230
         N            0.609566225250    -0.820187630640     0.815046817097    14.003074004430
         C           -0.623592774750    -0.295967630640     0.421897817097    12.000000000000
         C           -1.345937774750    -1.035358630640    -0.642403182903    12.000000000000
         C            1.826571225250    -0.418215630640     0.269054817097    12.000000000000
         C           -1.070558774750     0.895664369360     0.881768817097    12.000000000000
         C           -2.339336774750     1.531895369360     0.611653817097    12.000000000000
         N           -1.267384774750     2.771907369360     2.135814817097    14.003074004430
         C           -0.386929774750     1.739943369360     1.894436817097    12.000000000000
         C           -2.413853774750     2.635099369360     1.376383817097    12.000000000000
         C           -2.053539774750    -2.199435630640    -0.362460182903    12.000000000000
         C           -1.250007774750    -0.593478630640    -1.957226182903    12.000000000000
         C           -2.674227774750    -2.901328630640    -1.380303182903    12.000000000000
         C           -1.867347774750    -1.301574630640    -2.972690182903    12.000000000000
         C           -2.581019774750    -2.453572630640    -2.687252182903    12.000000000000
         C            1.969313225250     0.774877369360    -0.433823182903    12.000000000000
         C            2.951355225250    -1.210908630640     0.492460817097    12.000000000000
         C            3.208130225250     1.151323369360    -0.915759182903    12.000000000000
         C            4.184940225250    -0.825922630640     0.007661817097    12.000000000000
         C            4.320893225250     0.356576369360    -0.700568182903    12.000000000000
         H           -1.087984774750     3.516266369360     2.788456817097     1.007825032230
         O            0.691971225250     1.608361369360     2.429263817097    15.994914619570
         H           -2.127771774750    -2.543338630640     0.659648817097     1.007825032230
         H           -0.692972774750     0.304498369360    -2.178962182903     1.007825032230
         H           -3.230720774750    -3.798631630640    -1.152938182903     1.007825032230
         H           -1.789195774750    -0.952439630640    -3.991713182903     1.007825032230
         H           -3.063738774750    -3.001912630640    -3.482464182903     1.007825032230
         H            1.109762225250     1.406402369360    -0.598858182903     1.007825032230
         H            2.848218225250    -2.132613630640     1.048076817097     1.007825032230
         H            3.304835225250     2.077802369360    -1.463167182903     1.007825032230
         H            5.046946225250    -1.451749630640     0.187764817097     1.007825032230
         H           -3.074772774750     1.165951369360    -0.076514182903     1.007825032230
         H           -3.205581774750     3.356134369360     1.457733817097     1.007825032230
         H            5.286843225250     0.657759369360    -1.076803182903     1.007825032230

  Charge       = 0
  Multiplicity = 1
  Basis Set: 6-311+G*
    Blend: 6-311+G*
  Basis Set: (6-311+G* AUX)
    Blend: HEAVY-AUG-CC-PVTZ-JKFIT

    Orbital Energies [Eh]
    ---------------------

    Doubly Occupied:

       1A    -19.214496     2A    -14.469077     3A    -14.453757
       4A    -10.386770     5A    -10.350543     6A    -10.332948
       7A    -10.325357     8A    -10.311414     9A    -10.301736
      10A    -10.301136    11A    -10.299965    12A    -10.299742
      13A    -10.298823    14A    -10.298081    15A    -10.281996
      16A    -10.278520    17A    -10.277799    18A    -10.275227
      19A    -10.272704    20A    -10.268398    21A     -1.149011
      22A     -1.068209    23A     -1.063582    24A     -0.981673
      25A     -0.950443    26A     -0.915528    27A     -0.876216
      28A     -0.864672    29A     -0.845012    30A     -0.839333
      31A     -0.820213    32A     -0.772505    33A     -0.720715
      34A     -0.716283    35A     -0.704818    36A     -0.699760
      37A     -0.688260    38A     -0.649546    39A     -0.629782
      40A     -0.619725    41A     -0.603544    42A     -0.586578
      43A     -0.570794    44A     -0.559347    45A     -0.557388
      46A     -0.537216    47A     -0.531420    48A     -0.526697
      49A     -0.524224    50A     -0.521197    51A     -0.515464
      52A     -0.505209    53A     -0.501894    54A     -0.489581
      55A     -0.474985    56A     -0.468623    57A     -0.448293
      58A     -0.444472    59A     -0.435986    60A     -0.422482
      61A     -0.420154    62A     -0.406443    63A     -0.372292
      64A     -0.346098    65A     -0.344094    66A     -0.338431
      67A     -0.323550    68A     -0.290883    69A     -0.269957

  @DF-RKS Final Energy:  -840.84385286479630

   => Energetics <=

    Nuclear Repulsion Energy =           1436.1705057760250384
    One-Electron Energy =               -3991.3519195990957087
    Two-Electron Energy =                1797.1372059827635894
    DFT Exchange-Correlation Energy =     -82.7748463468329589
    Empirical Dispersion Energy =          -0.0247986776563786
    VV10 Nonlocal Energy =                  0.0000000000000000
    Total Energy =                       -840.8438528647964176
 Dipole X            :         -1.3230439           -0.1015027           -1.4245466
 Dipole Y            :          2.9176074           -3.0220595           -0.1044521
 Dipole Z            :          5.8867614           -6.5184614           -0.6317001
 Magnitude           :                                                    1.5618221
*** Psi4 exiting successfully. Buy a developer a beer!
