                               Psi4 1.6 release

  ==> Input File <==

--------------------------------------------------------------------------
molecule {
0 1
 H    1.048685    1.200308    1.186917
 N    0.936383    0.735711    0.292498
 C   -0.411845    0.608940   -0.018039
 C   -1.143428   -0.680721    0.097101
 C    1.920612   -0.233921    0.122074
 C   -1.149653    1.744164   -0.167476
 C   -2.562713    1.867113   -0.430736
 N   -1.716606    3.931652   -0.260309
 C   -0.629204    3.120412   -0.037040
 C   -2.853223    3.179351   -0.493940
 C   -1.539843   -1.065278    1.373745
 C   -1.395137   -1.529861   -0.974055
 C   -2.197760   -2.266280    1.569112
 C   -2.054781   -2.729930   -0.775906
 C   -2.451349   -3.103772    0.496555
 C    1.837661   -1.284913   -0.787676
 C    3.134416   -0.025630    0.785859
 C    2.910576   -2.139156   -0.967528
 C    4.200930   -0.878993    0.597974
 C    4.092804   -1.950264   -0.274946
 H   -1.679693    4.936878   -0.241042
 O    0.485860    3.507969    0.257728
 H   -1.341852   -0.414059    2.213226
 H   -1.124077   -1.223930   -1.974806
 H   -2.508777   -2.549663    2.563763
 H   -2.254017   -3.377149   -1.617285
 H   -2.960771   -4.043131    0.651409
 H    0.941804   -1.437898   -1.361910
 H    3.225184    0.814176    1.460576
 H    2.820176   -2.956461   -1.668219
 H    5.125559   -0.703050    1.127843
 H   -3.236979    1.046428   -0.573535
 H   -3.792002    3.663446   -0.686362
 H    4.926453   -2.619488   -0.423511
}
memory 20GB
set_num_threads(5)
psi4_io.set_default_path("/scratch/liuchw/Psi4-1_7_Index_0-farH_in17")
set freeze_core True
E, wfn = energy('wb97x-d/6-311+G*',return_wfn=True)
oeprop(wfn,"WIBERG_LOWDIN_INDICES")
clean()
--------------------------------------------------------------------------

    Molecular point group: c1

    Geometry (in Angstrom), charge = 0, multiplicity = 1:

       Center              X                  Y                   Z               Mass
    ------------   -----------------  -----------------  -----------------  -----------------
         H            1.077200147794     1.103712654325     1.161674894106     1.007825032230
         N            0.964898147794     0.639115654325     0.267255894106    14.003074004430
         C           -0.383329852206     0.512344654325    -0.043281105894    12.000000000000
         C           -1.114912852206    -0.777316345675     0.071858894106    12.000000000000
         C            1.949127147794    -0.330516345675     0.096831894106    12.000000000000
         C           -1.121137852206     1.647568654325    -0.192718105894    12.000000000000
         C           -2.534197852206     1.770517654325    -0.455978105894    12.000000000000
         N           -1.688090852206     3.835056654325    -0.285551105894    14.003074004430
         C           -0.600688852206     3.023816654325    -0.062282105894    12.000000000000
         C           -2.824707852206     3.082755654325    -0.519182105894    12.000000000000
         C           -1.511327852206    -1.161873345675     1.348502894106    12.000000000000
         C           -1.366621852206    -1.626456345675    -0.999297105894    12.000000000000
         C           -2.169244852206    -2.362875345675     1.543869894106    12.000000000000
         C           -2.026265852206    -2.826525345675    -0.801148105894    12.000000000000
         C           -2.422833852206    -3.200367345675     0.471312894106    12.000000000000
         C            1.866176147794    -1.381508345675    -0.812918105894    12.000000000000
         C            3.162931147794    -0.122225345675     0.760616894106    12.000000000000
         C            2.939091147794    -2.235751345675    -0.992770105894    12.000000000000
         C            4.229445147794    -0.975588345675     0.572731894106    12.000000000000
         C            4.121319147794    -2.046859345675    -0.300188105894    12.000000000000
         H           -1.651177852206     4.840282654325    -0.266284105894     1.007825032230
         O            0.514375147794     3.411373654325     0.232485894106    15.994914619570
         H           -1.313336852206    -0.510654345675     2.187983894106     1.007825032230
         H           -1.095561852206    -1.320525345675    -2.000048105894     1.007825032230
         H           -2.480261852206    -2.646258345675     2.538520894106     1.007825032230
         H           -2.225501852206    -3.473744345675    -1.642527105894     1.007825032230
         H           -2.932255852206    -4.139726345675     0.626166894106     1.007825032230
         H            0.970319147794    -1.534493345675    -1.387152105894     1.007825032230
         H            3.253699147794     0.717580654325     1.435333894106     1.007825032230
         H            2.848691147794    -3.053056345675    -1.693461105894     1.007825032230
         H            5.154074147794    -0.799645345675     1.102600894106     1.007825032230
         H           -3.208463852206     0.949832654325    -0.598777105894     1.007825032230
         H           -3.763486852206     3.566850654325    -0.711604105894     1.007825032230
         H            4.954968147794    -2.716083345675    -0.448753105894     1.007825032230

  Charge       = 0
  Multiplicity = 1
  Basis Set: 6-311+G*
    Blend: 6-311+G*
  Basis Set: (6-311+G* AUX)
    Blend: HEAVY-AUG-CC-PVTZ-JKFIT

    Orbital Energies [Eh]
    ---------------------

    Doubly Occupied:

       1A    -19.213043     2A    -14.468204     3A    -14.460847
       4A    -10.385115     5A    -10.354744     6A    -10.329537
       7A    -10.328309     8A    -10.312826     9A    -10.301299
      10A    -10.301082    11A    -10.299187    12A    -10.298790
      13A    -10.298123    14A    -10.295555    15A    -10.283806
      16A    -10.283674    17A    -10.280944    18A    -10.279717
      19A    -10.278798    20A    -10.275243    21A     -1.147042
      22A     -1.068569    23A     -1.066263    24A     -0.982392
      25A     -0.956864    26A     -0.916197    27A     -0.875140
      28A     -0.865084    29A     -0.849011    30A     -0.848391
      31A     -0.816242    32A     -0.773023    33A     -0.720865
      34A     -0.719287    35A     -0.712199    36A     -0.698205
      37A     -0.684533    38A     -0.653415    39A     -0.635501
      40A     -0.620072    41A     -0.605052    42A     -0.586488
      43A     -0.577005    44A     -0.562727    45A     -0.554754
      46A     -0.535531    47A     -0.532921    48A     -0.528337
      49A     -0.524627    50A     -0.520725    51A     -0.519880
      52A     -0.508183    53A     -0.504186    54A     -0.489734
      55A     -0.477803    56A     -0.469179    57A     -0.448221
      58A     -0.444819    59A     -0.440910    60A     -0.424863
      61A     -0.420741    62A     -0.412338    63A     -0.372802
      64A     -0.345330    65A     -0.344455    66A     -0.338241
      67A     -0.328183    68A     -0.300616    69A     -0.265027

  @DF-RKS Final Energy:  -840.84198710691135

   => Energetics <=

    Nuclear Repulsion Energy =           1425.6669803113122725
    One-Electron Energy =               -3970.1196580602545509
    Two-Electron Energy =                1786.4146801154263358
    DFT Exchange-Correlation Energy =     -82.7797247859364234
    Empirical Dispersion Energy =          -0.0242646874589543
    VV10 Nonlocal Energy =                  0.0000000000000000
    Total Energy =                       -840.8419871069113469
 Dipole X            :         -0.9631571           -0.3808169           -1.3439739
 Dipole Y            :          7.9242450           -8.4487609           -0.5245159
 Dipole Z            :         -0.1337074            0.2858558            0.1521484
 Magnitude           :                                                    1.4507005
*** Psi4 exiting successfully. Buy a developer a beer!
