   * xtb version 6.5.0 (97a52f5) compiled by 'conda@d2599ee0d4f4' on 2022-05-15
          program call               : /home/liuchw/anaconda3/envs/xtbenv/bin/xtb --gfn 2 --chrg 0 --uhf 0 1_7_Index_0-opt-2-3-136_preQMOPTprefit_xyzformat.xyz --opt --input xtb-opt-2-3-136_constr.txt

   ID    Z sym.   atoms
    1    1 H      1, 21, 23-34
    2    7 N      2, 8
    3    6 C      3-7, 9-20
    4    8 O      22
constraining angle 1 2 3 4 to  136.1346170°, actual value:  136.1346170°
constraining angle 5 2 3 4 to  272.9176804°, actual value:  -87.0823196°
constraining angle 1 2 5 17 to  331.9681959°, actual value:  -28.0318041°
constraining angle 3 2 5 17 to  194.8977251°, actual value: -165.1022749°
constraining angle 2 3 4 12 to  262.2158919°, actual value:  -97.7841081°
constraining angle 2 3 6 7 to  183.0659194°, actual value: -176.9340806°

          :  Hamiltonian                  GFN2-xTB          :
 * total energy  :   -53.4055004 Eh     change       -0.3098791E-08 Eh
 * total energy  :   -53.4185630 Eh     change       -0.1306258E-01 Eh
 * total energy  :   -53.4218177 Eh     change       -0.3254755E-02 Eh
 * total energy  :   -53.4223500 Eh     change       -0.5322645E-03 Eh
 * total energy  :   -53.4229490 Eh     change       -0.5990400E-03 Eh
 * total energy  :   -53.4231480 Eh     change       -0.1989839E-03 Eh
 * total energy  :   -53.4232835 Eh     change       -0.1354563E-03 Eh
 * total energy  :   -53.4233501 Eh     change       -0.6664852E-04 Eh
 * total energy  :   -53.4233976 Eh     change       -0.4747406E-04 Eh
 * total energy  :   -53.4234178 Eh     change       -0.2016545E-04 Eh
 * total energy  :   -53.4234293 Eh     change       -0.1151984E-04 Eh
 * total energy  :   -53.4234351 Eh     change       -0.5819559E-05 Eh
 * total energy  :   -53.4234398 Eh     change       -0.4666082E-05 Eh
 * total energy  :   -53.4234428 Eh     change       -0.3028055E-05 Eh
 * total energy  :   -53.4234450 Eh     change       -0.2247987E-05 Eh
   *** GEOMETRY OPTIMIZATION CONVERGED AFTER 15 ITERATIONS ***

 final structure:
================
34
 xtb: 6.5.0 (97a52f5)
H            1.07636378300242        1.01163978577254       -1.21391762447571
N            0.85449739821803        0.15121795649641       -0.70645388302342
C           -0.44668064781107        0.20609279304040       -0.23105340813146
C           -1.32174796995232       -0.98834718208898       -0.36582787365500
C            1.99272852991258       -0.29800371327547       -0.04252660746178
C           -1.03445215969435        1.41847858359907       -0.01414316966399
C           -2.33859124914235        1.71385133099599        0.52496083085884
N           -1.25527600697746        3.65296136514591        0.24569068931025
C           -0.35466386811120        2.71420629974374       -0.18158899555179
C           -2.42249756701243        3.04780499859487        0.68039491294377
C           -1.36546827290078       -2.07318974671173        0.49924581907328
C           -2.18846263476582       -0.96975275664850       -1.45865986937141
C           -2.23575901343908       -3.12480326239232        0.26650569230694
C           -3.05047732368739       -2.02371092740523       -1.69361147075192
C           -3.07594408051141       -3.10755391092642       -0.83191215071088
C            1.95126416615597       -1.02872321957702        1.14067501320647
C            3.23621458624832        0.02638470426904       -0.58852372611673
C            3.12226823273692       -1.45803061519261        1.73781605177089
C            4.39953476316046       -0.40540827282633        0.01362597792570
C            4.35038379516897       -1.15934325292608        1.17595194201142
H           -1.07397078323095        4.64256471650674        0.25882250514690
O            0.74827950479106        2.95148491456278       -0.65387554650465
H           -0.73814607064225       -2.10214970240910        1.37587577356502
H           -2.17278000222284       -0.12408368450415       -2.13024502726474
H           -2.25816796804074       -3.95924990794944        0.95197590884694
H           -3.70850200273519       -1.99543832550898       -2.54957427525356
H           -3.75197598339642       -3.92993179378755       -1.01256991583255
H            1.00432630929029       -1.22961750036931        1.61303948518646
H            3.27682534634884        0.62352210871394       -1.48764955698349
H            3.07112321239923       -2.02234274508273        2.65783156626005
H            5.35325699513229       -0.14584068941556       -0.42188565250766
H           -3.08040160194751        0.98242081326599        0.77592638072177
H           -3.22147738270312        3.64178125335253        1.08141610334733
H            5.26176996635925       -1.49588839506240        1.64632307077877

          :  Hamiltonian                  GFN2-xTB          :
         :: total energy             -53.423445048425 Eh    ::
         :: gradient norm              0.000633978024 Eh/a0 ::
         :: HOMO-LUMO gap              2.048320170224 eV    ::
         :: SCC energy               -54.346179838490 Eh    ::
         :: -> dispersion             -0.038165567051 Eh    ::
         :: repulsion energy           0.922413825424 Eh    ::

    * Orbital Energies and Occupations

         #    Occupation            Energy/Eh            Energy/eV
      -------------------------------------------------------------
         1        2.0000           -0.6940368             -18.8857
       ...           ...                  ...                  ...
        37        2.0000           -0.4661073             -12.6834
        38        2.0000           -0.4464273             -12.1479
        39        2.0000           -0.4377492             -11.9118
        40        2.0000           -0.4319735             -11.7546
        41        2.0000           -0.4280648             -11.6482
        42        2.0000           -0.4207990             -11.4505
        43        2.0000           -0.4168005             -11.3417
        44        2.0000           -0.4136632             -11.2563
        45        2.0000           -0.4106212             -11.1736
        46        2.0000           -0.3980463             -10.8314
        47        2.0000           -0.3914241             -10.6512
        48        2.0000           -0.3743301             -10.1860
        49        2.0000           -0.3555004              -9.6737 (HOMO)
        50                         -0.2802260              -7.6253 (LUMO)
        51                         -0.2332834              -6.3480
        52                         -0.2317500              -6.3062
        53                         -0.2157558              -5.8710
        54                         -0.2050542              -5.5798
        55                         -0.1775110              -4.8303
        56                         -0.1294391              -3.5222
        57                         -0.1034211              -2.8142
        58                         -0.0819904              -2.2311
        59                          0.0213533               0.5811
        60                          0.0367590               1.0003
       ...                                ...                  ...
        94                          0.7322304              19.9250
      -------------------------------------------------------------
                  HL-Gap            0.0752744 Eh            2.0483 eV

     #   Z          covCN         q      C6AA      α(0)
     1   1 H        0.859     0.208     1.065     1.617
     2   7 N        2.699    -0.165    24.564     7.361
     3   6 C        2.889     0.083    26.154     8.385
     4   6 C        2.977     0.014    27.705     8.634
     5   6 C        2.904     0.078    26.265     8.403
     6   6 C        3.086    -0.058    29.342     8.880
     7   6 C        2.978    -0.070    29.729     8.944
     8   7 N        2.771    -0.147    24.172     7.302
     9   6 C        2.864     0.263    22.578     7.789
    10   6 C        2.985     0.010    27.787     8.647
    11   6 C        2.922    -0.028    28.701     8.785
    12   6 C        2.932    -0.028    28.693     8.785
    13   6 C        2.920    -0.028    28.702     8.786
    14   6 C        2.919    -0.027    28.670     8.780
    15   6 C        2.920    -0.028    28.703     8.786
    16   6 C        2.922    -0.053    29.312     8.878
    17   6 C        2.927    -0.052    29.301     8.877
    18   6 C        2.920    -0.030    28.748     8.793
    19   6 C        2.920    -0.027    28.686     8.783
    20   6 C        2.919    -0.041    29.018     8.834
    21   1 H        0.860     0.172     1.258     1.757
    22   8 O        0.857    -0.460    22.914     6.418
    23   1 H        0.926     0.039     2.463     2.454
    24   1 H        0.926     0.036     2.507     2.476
    25   1 H        0.926     0.036     2.497     2.471
    26   1 H        0.926     0.037     2.487     2.466
    27   1 H        0.926     0.036     2.508     2.477
    28   1 H        0.926     0.029     2.597     2.520
    29   1 H        0.926     0.036     2.501     2.473
    30   1 H        0.926     0.029     2.603     2.523
    31   1 H        0.926     0.032     2.558     2.501
    32   1 H        0.926     0.036     2.506     2.475
    33   1 H        0.926     0.040     2.452     2.448
    34   1 H        0.926     0.028     2.612     2.527

Wiberg/Mayer (AO) data.
largest (>0.10) Wiberg bond orders for each atom

     #   Z sym  total        # sym  WBO       # sym  WBO       # sym  WBO
 ---------------------------------------------------------------------------
     1   1 H    0.956 --     2 N    0.892
     2   7 N    3.413 --     3 C    1.139     5 C    1.089     1 H    0.892
     3   6 C    3.966 --     6 C    1.547     2 N    1.139     4 C    1.006
     4   6 C    3.987 --    11 C    1.414    12 C    1.383     3 C    1.006
                            15 C    0.110
     5   6 C    3.962 --    16 C    1.366    17 C    1.349     2 N    1.089
     6   6 C    3.974 --     3 C    1.547     7 C    1.147     9 C    1.039
     7   6 C    3.978 --    10 C    1.702     6 C    1.147    32 H    0.972
     8   7 N    3.511 --     9 C    1.173    10 C    1.128    21 H    0.941
                            22 O    0.146
     9   6 C    3.947 --    22 O    1.615     8 N    1.173     6 C    1.039
    10   6 C    3.944 --     7 C    1.702     8 N    1.128    33 H    0.969
    11   6 C    3.989 --    13 C    1.438     4 C    1.414    23 H    0.960
                            14 C    0.110
    12   6 C    3.990 --    14 C    1.452     4 C    1.383    24 H    0.970
                            13 C    0.112
    13   6 C    3.992 --    15 C    1.444    11 C    1.438    25 H    0.970
                            12 C    0.112
    14   6 C    3.991 --    12 C    1.452    15 C    1.432    26 H    0.969
                            11 C    0.110
    15   6 C    3.989 --    13 C    1.444    14 C    1.432    27 H    0.971
                             4 C    0.110
    16   6 C    3.985 --    18 C    1.448     5 C    1.366    28 H    0.959
                            19 C    0.103
    17   6 C    3.986 --    19 C    1.469     5 C    1.349    29 H    0.967
                            18 C    0.107
    18   6 C    3.992 --    16 C    1.448    20 C    1.438    30 H    0.971
                            17 C    0.107
    19   6 C    3.992 --    17 C    1.469    20 C    1.420    31 H    0.971
                            16 C    0.103
    20   6 C    3.980 --    18 C    1.438    19 C    1.420    34 H    0.972
    21   1 H    0.969 --     8 N    0.941
    22   8 O    1.992 --     9 C    1.615     8 N    0.146
    23   1 H    0.998 --    11 C    0.960
    24   1 H    0.999 --    12 C    0.970
    25   1 H    0.998 --    13 C    0.970
    26   1 H    0.998 --    14 C    0.969
    27   1 H    0.998 --    15 C    0.971
    28   1 H    0.999 --    16 C    0.959
    29   1 H    0.999 --    17 C    0.967
    30   1 H    0.998 --    18 C    0.971
    31   1 H    0.998 --    19 C    0.971
    32   1 H    0.999 --     7 C    0.972
    33   1 H    0.998 --    10 C    0.969
    34   1 H    0.999 --    20 C    0.972
 ---------------------------------------------------------------------------

molecular dipole:
                 x           y           z       tot (Debye)
 q only:       -1.008      -0.563       0.154
   full:       -1.195      -0.181       0.278       3.152

           -------------------------------------------------
          | TOTAL ENERGY              -53.423445048425 Eh   |
          | GRADIENT NORM               0.000633978024 Eh/α |
          | HOMO-LUMO GAP               2.048320170224 eV   |
           -------------------------------------------------

 * finished run on 2023/11/18 at 09:05:56.779
