   * xtb version 6.5.0 (97a52f5) compiled by 'conda@d2599ee0d4f4' on 2022-05-15
          program call               : /home/liuchw/anaconda3/envs/xtbenv/bin/xtb --gfn 2 --chrg 0 --uhf 0 1_7_Index_0-opt-2-3-286_preQMOPTprefit_xyzformat.xyz --opt --input xtb-opt-2-3-286_constr.txt

   ID    Z sym.   atoms
    1    1 H      1, 21, 23-34
    2    7 N      2, 8
    3    6 C      3-7, 9-20
    4    8 O      22
constraining angle 1 2 3 4 to  286.0657930°, actual value:  -73.9342070°
constraining angle 5 2 3 4 to   63.2144365°, actual value:   63.2144365°
constraining angle 1 2 5 17 to  331.9499318°, actual value:  -28.0500682°
constraining angle 3 2 5 17 to  195.1750629°, actual value: -164.8249371°
constraining angle 2 3 4 12 to  262.0746754°, actual value:  -97.9253246°
constraining angle 2 3 6 7 to  183.0327671°, actual value: -176.9672329°

          :  Hamiltonian                  GFN2-xTB          :
 * total energy  :   -53.3952628 Eh     change       -0.6872440E-09 Eh
 * total energy  :   -53.4081635 Eh     change       -0.1290072E-01 Eh
 * total energy  :   -53.4094298 Eh     change       -0.1266261E-02 Eh
 * total energy  :   -53.4109996 Eh     change       -0.1569786E-02 Eh
 * total energy  :   -53.4115883 Eh     change       -0.5887200E-03 Eh
 * total energy  :   -53.4119838 Eh     change       -0.3954818E-03 Eh
 * total energy  :   -53.4123518 Eh     change       -0.3680109E-03 Eh
 * total energy  :   -53.4127288 Eh     change       -0.3770550E-03 Eh
 * total energy  :   -53.4131244 Eh     change       -0.3955288E-03 Eh
 * total energy  :   -53.4134544 Eh     change       -0.3300082E-03 Eh
 * total energy  :   -53.4139884 Eh     change       -0.1186235E-04 Eh
 * total energy  :   -53.4139963 Eh     change       -0.7914914E-05 Eh
 * total energy  :   -53.4140008 Eh     change       -0.4512713E-05 Eh
 * total energy  :   -53.4140024 Eh     change       -0.1634511E-05 Eh
 * total energy  :   -53.4140040 Eh     change       -0.1603139E-05 Eh
 * total energy  :   -53.4140047 Eh     change       -0.6509058E-06 Eh
 * total energy  :   -53.4140047 Eh     change        0.1972487E-07 Eh
 * total energy  :   -53.4140051 Eh     change       -0.4253924E-06 Eh
 * total energy  :   -53.4140053 Eh     change       -0.2031489E-06 Eh
   *** GEOMETRY OPTIMIZATION CONVERGED AFTER 25 ITERATIONS ***

 final structure:
================
34
 xtb: 6.5.0 (97a52f5)
H            0.82795353227334        0.55289480567580        1.88589781928849
N            0.83017942252348        0.54939186983821        0.87242099767603
C           -0.48299159529829        0.52911308626356        0.34806603056158
C           -1.24130589148065       -0.74842014516059        0.43445525284359
C            1.83924013379115       -0.23891392062342        0.34187792062760
C           -1.05139404906460        1.65491969115893       -0.12546102677384
C           -2.39354174252303        1.82756354899083       -0.63758342108219
N           -1.36134314136856        3.81184977660943       -0.75350288122190
C           -0.40069998431356        2.99351350134024       -0.20137360604030
C           -2.52861831393108        3.11388457084845       -1.00066288493560
C           -1.79508073398429       -1.07881214993288        1.66991644024499
C           -1.34824974448970       -1.65469782915447       -0.61264818472366
C           -2.45877794190410       -2.27846936554022        1.84668659246904
C           -2.00834727576669       -2.85778775959094       -0.43137456917361
C           -2.56171876249229       -3.17501936744823        0.79648030775342
C            1.80673224424945       -0.66656723794505       -0.98469122973939
C            3.01249408967576       -0.42860924368422        1.07436991551012
C            2.87832120440381       -1.34926185226470       -1.52626504972535
C            4.07995829513994       -1.10874941170686        0.52520968645856
C            4.01521779925219       -1.58726229300703       -0.77349421503737
H           -1.22263677828561        4.79198006800609       -0.93424182371136
O            0.70420053665466        3.35023768617234        0.13608020111062
H           -1.71546565178812       -0.37992219849652        2.49115852745030
H           -0.94102237265423       -1.41327057080293       -1.58178642293960
H           -2.89128554173271       -2.51559856148399        2.80757722803571
H           -2.08589777327242       -3.55188063455590       -1.25513501018244
H           -3.07298210342662       -4.11594706580776        0.93494641377949
H            0.94930422390370       -0.43178908593126       -1.59529518377921
H            3.06982321337540       -0.05316793439378        2.08661839923539
H            2.82958415648176       -1.68544459504637       -2.55211102147063
H            4.97494855837144       -1.25752134989098        1.11188191910489
H           -3.12603487146704        1.04912604192647       -0.71110548967128
H           -3.37800195330407        3.61650766778209       -1.42451824941629
H            4.85083279246579       -2.12087073215794       -1.20033336251344

          :  Hamiltonian                  GFN2-xTB          :
         :: total energy             -53.414005298859 Eh    ::
         :: gradient norm              0.000850533838 Eh/a0 ::
         :: HOMO-LUMO gap              1.824792341483 eV    ::
         :: SCC energy               -54.339888991173 Eh    ::
         :: -> dispersion             -0.038491877543 Eh    ::
         :: repulsion energy           0.925352584121 Eh    ::

    * Orbital Energies and Occupations

         #    Occupation            Energy/Eh            Energy/eV
      -------------------------------------------------------------
         1        2.0000           -0.6979999             -18.9935
       ...           ...                  ...                  ...
        37        2.0000           -0.4643624             -12.6359
        38        2.0000           -0.4433621             -12.0645
        39        2.0000           -0.4417526             -12.0207
        40        2.0000           -0.4291511             -11.6778
        41        2.0000           -0.4266417             -11.6095
        42        2.0000           -0.4189040             -11.3990
        43        2.0000           -0.4158904             -11.3170
        44        2.0000           -0.4140642             -11.2673
        45        2.0000           -0.4092395             -11.1360
        46        2.0000           -0.3937015             -10.7132
        47        2.0000           -0.3914211             -10.6511
        48        2.0000           -0.3746917             -10.1959
        49        2.0000           -0.3515814              -9.5670 (HOMO)
        50                         -0.2845216              -7.7422 (LUMO)
        51                         -0.2357625              -6.4154
        52                         -0.2338697              -6.3639
        53                         -0.2092767              -5.6947
        54                         -0.1995148              -5.4291
        55                         -0.1815078              -4.9391
        56                         -0.1322378              -3.5984
        57                         -0.1057886              -2.8787
        58                         -0.0766854              -2.0867
        59                          0.0183653               0.4997
        60                          0.0295039               0.8028
       ...                                ...                  ...
        94                          0.7542355              20.5238
      -------------------------------------------------------------
                  HL-Gap            0.0670599 Eh            1.8248 eV

     #   Z          covCN         q      C6AA      α(0)
     1   1 H        0.860     0.170     1.275     1.769
     2   7 N        2.696    -0.174    24.759     7.390
     3   6 C        2.891     0.085    26.095     8.375
     4   6 C        2.975     0.005    27.913     8.666
     5   6 C        2.908     0.075    26.316     8.412
     6   6 C        3.074    -0.035    28.788     8.797
     7   6 C        2.971    -0.072    29.800     8.954
     8   7 N        2.767    -0.148    24.201     7.306
     9   6 C        2.847     0.274    22.373     7.752
    10   6 C        2.974     0.019    27.569     8.613
    11   6 C        2.928    -0.031    28.774     8.797
    12   6 C        2.922    -0.027    28.688     8.783
    13   6 C        2.919    -0.028    28.694     8.784
    14   6 C        2.920    -0.027    28.684     8.783
    15   6 C        2.920    -0.029    28.717     8.788
    16   6 C        2.924    -0.054    29.336     8.882
    17   6 C        2.926    -0.057    29.413     8.894
    18   6 C        2.920    -0.030    28.754     8.793
    19   6 C        2.920    -0.029    28.727     8.789
    20   6 C        2.919    -0.044    29.101     8.846
    21   1 H        0.860     0.175     1.241     1.745
    22   8 O        0.857    -0.404    21.756     6.254
    23   1 H        0.925     0.028     2.616     2.529
    24   1 H        0.926     0.039     2.468     2.457
    25   1 H        0.926     0.035     2.512     2.478
    26   1 H        0.926     0.037     2.494     2.470
    27   1 H        0.926     0.035     2.517     2.481
    28   1 H        0.926     0.024     2.673     2.557
    29   1 H        0.926     0.024     2.678     2.559
    30   1 H        0.926     0.026     2.649     2.545
    31   1 H        0.926     0.028     2.622     2.532
    32   1 H        0.926     0.041     2.433     2.439
    33   1 H        0.926     0.045     2.383     2.414
    34   1 H        0.926     0.025     2.664     2.552

Wiberg/Mayer (AO) data.
largest (>0.10) Wiberg bond orders for each atom

     #   Z sym  total        # sym  WBO       # sym  WBO       # sym  WBO
 ---------------------------------------------------------------------------
     1   1 H    0.971 --     2 N    0.916
     2   7 N    3.314 --     5 C    1.116     3 C    1.028     1 H    0.916
     3   6 C    3.973 --     6 C    1.659     2 N    1.028     4 C    0.996
     4   6 C    3.986 --    12 C    1.406    11 C    1.393     3 C    0.996
                            15 C    0.110
     5   6 C    3.964 --    16 C    1.352    17 C    1.346     2 N    1.116
     6   6 C    3.982 --     3 C    1.659     7 C    1.127     9 C    0.995
     7   6 C    3.977 --    10 C    1.716     6 C    1.127    32 H    0.971
     8   7 N    3.506 --     9 C    1.152    10 C    1.134    21 H    0.940
                            22 O    0.151
     9   6 C    3.947 --    22 O    1.701     8 N    1.152     6 C    0.995
    10   6 C    3.955 --     7 C    1.716     8 N    1.134    33 H    0.968
    11   6 C    3.988 --    13 C    1.448     4 C    1.393    23 H    0.971
                            14 C    0.112
    12   6 C    3.988 --    14 C    1.440     4 C    1.406    24 H    0.965
                            13 C    0.111
    13   6 C    3.991 --    11 C    1.448    15 C    1.435    25 H    0.970
                            12 C    0.111
    14   6 C    3.991 --    15 C    1.442    12 C    1.440    26 H    0.970
                            11 C    0.112
    15   6 C    3.991 --    14 C    1.442    13 C    1.435    27 H    0.971
                             4 C    0.110
    16   6 C    3.987 --    18 C    1.456     5 C    1.352    28 H    0.963
                            19 C    0.103
    17   6 C    3.987 --    19 C    1.466     5 C    1.346    29 H    0.968
                            18 C    0.105
    18   6 C    3.993 --    16 C    1.456    20 C    1.432    30 H    0.971
                            17 C    0.105
    19   6 C    3.992 --    17 C    1.466    20 C    1.423    31 H    0.971
                            16 C    0.103
    20   6 C    3.986 --    18 C    1.432    19 C    1.423    34 H    0.972
    21   1 H    0.968 --     8 N    0.940
    22   8 O    2.040 --     9 C    1.701     8 N    0.151
    23   1 H    0.999 --    11 C    0.971
    24   1 H    0.998 --    12 C    0.965
    25   1 H    0.997 --    13 C    0.970
    26   1 H    0.997 --    14 C    0.970
    27   1 H    0.998 --    15 C    0.971
    28   1 H    0.999 --    16 C    0.963
    29   1 H    0.999 --    17 C    0.968
    30   1 H    0.999 --    18 C    0.971
    31   1 H    0.999 --    19 C    0.971
    32   1 H    0.998 --     7 C    0.971
    33   1 H    0.997 --    10 C    0.968
    34   1 H    0.999 --    20 C    0.972
 ---------------------------------------------------------------------------

molecular dipole:
                 x           y           z       tot (Debye)
 q only:       -1.413      -0.401       0.004
   full:       -1.673      -0.371       0.057       4.358

           -------------------------------------------------
          | TOTAL ENERGY              -53.414005298859 Eh   |
          | GRADIENT NORM               0.000850533838 Eh/α |
          | HOMO-LUMO GAP               1.824792341483 eV   |
           -------------------------------------------------

 * finished run on 2023/11/18 at 09:08:03.593
