                               Psi4 1.6 release

  ==> Input File <==

--------------------------------------------------------------------------
molecule {
0 1
 H    1.169646    1.567638    0.395168
 N    0.955012    0.761084   -0.200812
 C   -0.399222    0.613905   -0.289889
 C   -1.102997   -0.683447   -0.151185
 C    1.927064   -0.226295   -0.029750
 C   -1.169247    1.750672   -0.268436
 C   -2.602738    1.882238   -0.290051
 N   -1.730486    3.900670    0.116060
 C   -0.636794    3.083496    0.022967
 C   -2.896042    3.179931   -0.081088
 C   -1.379678   -1.146086    1.129706
 C   -1.508144   -1.429865   -1.253333
 C   -2.055234   -2.341032    1.303128
 C   -2.186491   -2.622097   -1.074287
 C   -2.458205   -3.080653    0.204272
 C    1.768824   -1.576351   -0.336571
 C    3.195834    0.226466    0.349254
 C    2.833998   -2.449302   -0.200374
 C    4.251606   -0.650537    0.480365
 C    4.074922   -1.999157    0.212182
 H   -1.682550    4.886944    0.308916
 O    0.523273    3.418532    0.246312
 H   -1.066099   -0.567208    1.986209
 H   -1.291909   -1.066728   -2.247552
 H   -2.267162   -2.695239    2.301004
 H   -2.499405   -3.196419   -1.933809
 H   -2.984268   -4.013303    0.343735
 H    0.822708   -1.956408   -0.680411
 H    3.333732    1.278834    0.552996
 H    2.687057   -3.494614   -0.429465
 H    5.219589   -0.280867    0.784705
 H   -3.293787    1.084428   -0.476581
 H   -3.848962    3.671874   -0.044671
 H    4.899550   -2.688104    0.313342
}
memory 20GB
set_num_threads(5)
psi4_io.set_default_path("/scratch/liuchw/Psi4-1_7_Index_0-farH_in17")
set freeze_core True
E, wfn = energy('wb97x-d/6-311+G*',return_wfn=True)
oeprop(wfn,"WIBERG_LOWDIN_INDICES")
clean()
--------------------------------------------------------------------------

    Molecular point group: c1

    Geometry (in Angstrom), charge = 0, multiplicity = 1:

       Center              X                  Y                   Z               Mass
    ------------   -----------------  -----------------  -----------------  -----------------
         H            1.197908783205     1.480602122524     0.392655166879     1.007825032230
         N            0.983274783205     0.674048122524    -0.203324833121    14.003074004430
         C           -0.370959216795     0.526869122524    -0.292401833121    12.000000000000
         C           -1.074734216795    -0.770482877476    -0.153697833121    12.000000000000
         C            1.955326783205    -0.313330877476    -0.032262833121    12.000000000000
         C           -1.140984216795     1.663636122524    -0.270948833121    12.000000000000
         C           -2.574475216795     1.795202122524    -0.292563833121    12.000000000000
         N           -1.702223216795     3.813634122524     0.113547166879    14.003074004430
         C           -0.608531216795     2.996460122524     0.020454166879    12.000000000000
         C           -2.867779216795     3.092895122524    -0.083600833121    12.000000000000
         C           -1.351415216795    -1.233121877476     1.127193166879    12.000000000000
         C           -1.479881216795    -1.516900877476    -1.255845833121    12.000000000000
         C           -2.026971216795    -2.428067877476     1.300615166879    12.000000000000
         C           -2.158228216795    -2.709132877476    -1.076799833121    12.000000000000
         C           -2.429942216795    -3.167688877476     0.201759166879    12.000000000000
         C            1.797086783205    -1.663386877476    -0.339083833121    12.000000000000
         C            3.224096783205     0.139430122524     0.346741166879    12.000000000000
         C            2.862260783205    -2.536337877476    -0.202886833121    12.000000000000
         C            4.279868783205    -0.737572877476     0.477852166879    12.000000000000
         C            4.103184783205    -2.086192877476     0.209669166879    12.000000000000
         H           -1.654287216795     4.799908122524     0.306403166879     1.007825032230
         O            0.551535783205     3.331496122524     0.243799166879    15.994914619570
         H           -1.037836216795    -0.654243877476     1.983696166879     1.007825032230
         H           -1.263646216795    -1.153763877476    -2.250064833121     1.007825032230
         H           -2.238899216795    -2.782274877476     2.298491166879     1.007825032230
         H           -2.471142216795    -3.283454877476    -1.936321833121     1.007825032230
         H           -2.956005216795    -4.100338877476     0.341222166879     1.007825032230
         H            0.850970783205    -2.043443877476    -0.682923833121     1.007825032230
         H            3.361994783205     1.191798122524     0.550483166879     1.007825032230
         H            2.715319783205    -3.581649877476    -0.431977833121     1.007825032230
         H            5.247851783205    -0.367902877476     0.782192166879     1.007825032230
         H           -3.265524216795     0.997392122524    -0.479093833121     1.007825032230
         H           -3.820699216795     3.584838122524    -0.047183833121     1.007825032230
         H            4.927812783205    -2.775139877476     0.310829166879     1.007825032230

  Charge       = 0
  Multiplicity = 1
  Basis Set: 6-311+G*
    Blend: 6-311+G*
  Basis Set: (6-311+G* AUX)
    Blend: HEAVY-AUG-CC-PVTZ-JKFIT

    Orbital Energies [Eh]
    ---------------------

    Doubly Occupied:

       1A    -19.210067     2A    -14.469758     3A    -14.465874
       4A    -10.379554     5A    -10.360925     6A    -10.334338
       7A    -10.318099     8A    -10.316559     9A    -10.303797
      10A    -10.303545    11A    -10.302628    12A    -10.302198
      13A    -10.301588    14A    -10.287647    15A    -10.287235
      16A    -10.285334    17A    -10.284911    18A    -10.282832
      19A    -10.280621    20A    -10.275831    21A     -1.143320
      22A     -1.076950    23A     -1.062179    24A     -0.985937
      25A     -0.961753    26A     -0.915242    27A     -0.876090
      28A     -0.867707    29A     -0.853086    30A     -0.852608
      31A     -0.813433    32A     -0.772493    33A     -0.725751
      34A     -0.721556    35A     -0.717176    36A     -0.697149
      37A     -0.681421    38A     -0.661302    39A     -0.638291
      40A     -0.617672    41A     -0.601493    42A     -0.585015
      43A     -0.580867    44A     -0.567081    45A     -0.555590
      46A     -0.534959    47A     -0.533834    48A     -0.529282
      49A     -0.526218    50A     -0.519630    51A     -0.516133
      52A     -0.512666    53A     -0.500953    54A     -0.491365
      55A     -0.480418    56A     -0.474241    57A     -0.451457
      58A     -0.446942    59A     -0.444141    60A     -0.430794
      61A     -0.427083    62A     -0.416419    63A     -0.367381
      64A     -0.348395    65A     -0.345804    66A     -0.338024
      67A     -0.332265    68A     -0.307515    69A     -0.258972

  @DF-RKS Final Energy:  -840.85447434433684

   => Energetics <=

    Nuclear Repulsion Energy =           1432.1559148643018489
    One-Electron Energy =               -3982.9188116755699411
    Two-Electron Energy =                1792.7218508839571314
    DFT Exchange-Correlation Energy =     -82.7889840081376036
    Empirical Dispersion Energy =          -0.0244444088883645
    VV10 Nonlocal Energy =                  0.0000000000000000
    Total Energy =                       -840.8544743443369498
 Dipole X            :         -0.7035641           -0.3760440           -1.0796081
 Dipole Y            :          7.3661089           -8.1414562           -0.7753473
 Dipole Z            :         -0.8387277            1.0686534            0.2299257
 Magnitude           :                                                    1.3489192
*** Psi4 exiting successfully. Buy a developer a beer!
