                               Psi4 1.6 release

  ==> Input File <==

--------------------------------------------------------------------------
molecule {
0 1
 H    0.687979   -1.583241   -0.648250
 N    0.765761   -0.978800    0.166882
 C   -0.480058   -0.447942    0.390524
 C   -1.522364   -1.216026   -0.355654
 C    2.044145   -0.411035    0.207386
 C   -0.892023    0.792074    0.820790
 C   -2.289865    1.090772    1.052684
 N   -1.186625    3.017912    1.127036
 C   -0.215432    2.100249    0.792500
 C   -2.415934    2.411683    1.271236
 C   -2.014938   -2.433629    0.098742
 C   -1.956125   -0.715403   -1.578049
 C   -2.948479   -3.131172   -0.648344
 C   -2.882118   -1.419538   -2.325654
 C   -3.382497   -2.625165   -1.861595
 C    2.399726    0.521923    1.186178
 C    3.075421   -1.141581   -0.387920
 C    3.718178    0.911695    1.328021
 C    4.391479   -0.748186   -0.251420
 C    4.716881    0.306730    0.585280
 H   -1.014789    4.008739    1.150081
 O    0.892826    2.420993    0.392308
 H   -1.672971   -2.824119    1.046074
 H   -1.568064    0.228607   -1.931708
 H   -3.336207   -4.070719   -0.283256
 H   -3.215811   -1.024180   -3.273537
 H   -4.110010   -3.168727   -2.445755
 H    1.658160    0.904953    1.862113
 H    2.828984   -1.971328   -1.039068
 H    3.968854    1.669447    2.054681
 H    5.167589   -1.291896   -0.769822
 H   -3.065928    0.354240    1.122133
 H   -3.287641    2.990191    1.510767
 H    5.745291    0.615478    0.696675
}
memory 20GB
set_num_threads(5)
psi4_io.set_default_path("/scratch/liuchw/Psi4-1_7_Index_0-farH_in17")
set freeze_core True
E, wfn = energy('wb97x-d/6-311+G*',return_wfn=True)
oeprop(wfn,"WIBERG_LOWDIN_INDICES")
clean()
--------------------------------------------------------------------------

    Molecular point group: c1

    Geometry (in Angstrom), charge = 0, multiplicity = 1:

       Center              X                  Y                   Z               Mass
    ------------   -----------------  -----------------  -----------------  -----------------
         H            0.690591706491    -1.538297563899    -0.752533932646     1.007825032230
         N            0.768373706491    -0.933856563899     0.062598067354    14.003074004430
         C           -0.477445293509    -0.402998563899     0.286240067354    12.000000000000
         C           -1.519751293509    -1.171082563899    -0.459937932646    12.000000000000
         C            2.046757706491    -0.366091563899     0.103102067354    12.000000000000
         C           -0.889410293509     0.837017436101     0.716506067354    12.000000000000
         C           -2.287252293509     1.135715436101     0.948400067354    12.000000000000
         N           -1.184012293509     3.062855436101     1.022752067354    14.003074004430
         C           -0.212819293509     2.145192436101     0.688216067354    12.000000000000
         C           -2.413321293509     2.456626436101     1.166952067354    12.000000000000
         C           -2.012325293509    -2.388685563899    -0.005541932646    12.000000000000
         C           -1.953512293509    -0.670459563899    -1.682332932646    12.000000000000
         C           -2.945866293509    -3.086228563899    -0.752627932646    12.000000000000
         C           -2.879505293509    -1.374594563899    -2.429937932646    12.000000000000
         C           -3.379884293509    -2.580221563899    -1.965878932646    12.000000000000
         C            2.402338706491     0.566866436101     1.081894067354    12.000000000000
         C            3.078033706491    -1.096637563899    -0.492203932646    12.000000000000
         C            3.720790706491     0.956638436101     1.223737067354    12.000000000000
         C            4.394091706491    -0.703242563899    -0.355703932646    12.000000000000
         C            4.719493706491     0.351673436101     0.480996067354    12.000000000000
         H           -1.012176293509     4.053682436101     1.045797067354     1.007825032230
         O            0.895438706491     2.465936436101     0.288024067354    15.994914619570
         H           -1.670358293509    -2.779175563899     0.941790067354     1.007825032230
         H           -1.565451293509     0.273550436101    -2.035991932646     1.007825032230
         H           -3.333594293509    -4.025775563899    -0.387539932646     1.007825032230
         H           -3.213198293509    -0.979236563899    -3.377820932646     1.007825032230
         H           -4.107397293509    -3.123783563899    -2.550038932646     1.007825032230
         H            1.660772706491     0.949896436101     1.757829067354     1.007825032230
         H            2.831596706491    -1.926384563899    -1.143351932646     1.007825032230
         H            3.971466706491     1.714390436101     1.950397067354     1.007825032230
         H            5.170201706491    -1.246952563899    -0.874105932646     1.007825032230
         H           -3.063315293509     0.399183436101     1.017849067354     1.007825032230
         H           -3.285028293509     3.035134436101     1.406483067354     1.007825032230
         H            5.747903706491     0.660421436101     0.592391067354     1.007825032230

  Charge       = 0
  Multiplicity = 1
  Basis Set: 6-311+G*
    Blend: 6-311+G*
  Basis Set: (6-311+G* AUX)
    Blend: HEAVY-AUG-CC-PVTZ-JKFIT

    Orbital Energies [Eh]
    ---------------------

    Doubly Occupied:

       1A    -19.199623     2A    -14.486764     3A    -14.458571
       4A    -10.376845     5A    -10.363821     6A    -10.328785
       7A    -10.315157     8A    -10.313992     9A    -10.303454
      10A    -10.302974    11A    -10.302078    12A    -10.301511
      13A    -10.301115    14A    -10.289326    15A    -10.285663
      16A    -10.280323    17A    -10.278624    18A    -10.276038
      19A    -10.275433    20A    -10.270879    21A     -1.137212
      22A     -1.083601    23A     -1.055478    24A     -0.986296
      25A     -0.956191    26A     -0.915785    27A     -0.873844
      28A     -0.866886    29A     -0.847598    30A     -0.843279
      31A     -0.814451    32A     -0.771047    33A     -0.723241
      34A     -0.721667    35A     -0.711307    36A     -0.699872
      37A     -0.679674    38A     -0.652940    39A     -0.635234
      40A     -0.618418    41A     -0.596696    42A     -0.586191
      43A     -0.579831    44A     -0.565196    45A     -0.552475
      46A     -0.535221    47A     -0.526363    48A     -0.525134
      49A     -0.520641    50A     -0.513201    51A     -0.510977
      52A     -0.506316    53A     -0.502008    54A     -0.494288
      55A     -0.475660    56A     -0.469510    57A     -0.449155
      58A     -0.446784    59A     -0.436182    60A     -0.430918
      61A     -0.424776    62A     -0.406557    63A     -0.360135
      64A     -0.353110    65A     -0.347535    66A     -0.338877
      67A     -0.317837    68A     -0.293388    69A     -0.257520

  @DF-RKS Final Energy:  -840.82378244587983

   => Energetics <=

    Nuclear Repulsion Energy =           1431.9272684155077968
    One-Electron Energy =               -3982.7918116118407852
    Two-Electron Energy =                1792.8424800906625478
    DFT Exchange-Correlation Energy =     -82.7774237697217785
    Empirical Dispersion Energy =          -0.0242955704873394
    VV10 Nonlocal Energy =                  0.0000000000000000
    Total Energy =                       -840.8237824458797149
 Dipole X            :         -0.0582002           -1.0988162           -1.1570165
 Dipole Y            :          3.5721776           -4.2442093           -0.6720316
 Dipole Z            :          1.9581782           -2.2599891           -0.3018109
 Magnitude           :                                                    1.3716426
*** Psi4 exiting successfully. Buy a developer a beer!
