                               Psi4 1.6 release

  ==> Input File <==

--------------------------------------------------------------------------
molecule {
0 1
 H    0.827954    0.552895    1.885898
 N    0.830179    0.549392    0.872421
 C   -0.482992    0.529113    0.348066
 C   -1.241306   -0.748420    0.434455
 C    1.839240   -0.238914    0.341878
 C   -1.051394    1.654920   -0.125461
 C   -2.393542    1.827564   -0.637583
 N   -1.361343    3.811850   -0.753503
 C   -0.400700    2.993514   -0.201374
 C   -2.528618    3.113885   -1.000663
 C   -1.795081   -1.078812    1.669916
 C   -1.348250   -1.654698   -0.612648
 C   -2.458778   -2.278469    1.846687
 C   -2.008347   -2.857788   -0.431375
 C   -2.561719   -3.175019    0.796480
 C    1.806732   -0.666567   -0.984691
 C    3.012494   -0.428609    1.074370
 C    2.878321   -1.349262   -1.526265
 C    4.079958   -1.108749    0.525210
 C    4.015218   -1.587262   -0.773494
 H   -1.222637    4.791980   -0.934242
 O    0.704201    3.350238    0.136080
 H   -1.715466   -0.379922    2.491159
 H   -0.941022   -1.413271   -1.581786
 H   -2.891286   -2.515599    2.807577
 H   -2.085898   -3.551881   -1.255135
 H   -3.072982   -4.115947    0.934946
 H    0.949304   -0.431789   -1.595295
 H    3.069823   -0.053168    2.086618
 H    2.829584   -1.685445   -2.552111
 H    4.974949   -1.257521    1.111882
 H   -3.126035    1.049126   -0.711105
 H   -3.378002    3.616508   -1.424518
 H    4.850833   -2.120871   -1.200333
}
memory 20GB
set_num_threads(5)
psi4_io.set_default_path("/scratch/liuchw/Psi4-1_7_Index_0-farH_in17")
set freeze_core True
E, wfn = energy('wb97x-d/6-311+G*',return_wfn=True)
oeprop(wfn,"WIBERG_LOWDIN_INDICES")
clean()
--------------------------------------------------------------------------

    Molecular point group: c1

    Geometry (in Angstrom), charge = 0, multiplicity = 1:

       Center              X                  Y                   Z               Mass
    ------------   -----------------  -----------------  -----------------  -----------------
         H            0.846181522526     0.467278551261     1.836957006329     1.007825032230
         N            0.848406522526     0.463775551261     0.823480006329    14.003074004430
         C           -0.464764477474     0.443496551261     0.299125006329    12.000000000000
         C           -1.223078477474    -0.834036448739     0.385514006329    12.000000000000
         C            1.857467522526    -0.324530448739     0.292937006329    12.000000000000
         C           -1.033166477474     1.569303551261    -0.174401993671    12.000000000000
         C           -2.375314477474     1.741947551261    -0.686523993671    12.000000000000
         N           -1.343115477474     3.726233551261    -0.802443993671    14.003074004430
         C           -0.382472477474     2.907897551261    -0.250314993671    12.000000000000
         C           -2.510390477474     3.028268551261    -1.049603993671    12.000000000000
         C           -1.776853477474    -1.164428448739     1.620975006329    12.000000000000
         C           -1.330022477474    -1.740314448739    -0.661588993671    12.000000000000
         C           -2.440550477474    -2.364085448739     1.797746006329    12.000000000000
         C           -1.990119477474    -2.943404448739    -0.480315993671    12.000000000000
         C           -2.543491477474    -3.260635448739     0.747539006329    12.000000000000
         C            1.824959522526    -0.752183448739    -1.033631993671    12.000000000000
         C            3.030721522526    -0.514225448739     1.025429006329    12.000000000000
         C            2.896548522526    -1.434878448739    -1.575205993671    12.000000000000
         C            4.098185522526    -1.194365448739     0.476269006329    12.000000000000
         C            4.033445522526    -1.672878448739    -0.822434993671    12.000000000000
         H           -1.204409477474     4.706363551261    -0.983182993671     1.007825032230
         O            0.722428522526     3.264621551261     0.087139006329    15.994914619570
         H           -1.697238477474    -0.465538448739     2.442218006329     1.007825032230
         H           -0.922794477474    -1.498887448739    -1.630726993671     1.007825032230
         H           -2.873058477474    -2.601215448739     2.758636006329     1.007825032230
         H           -2.067670477474    -3.637497448739    -1.304075993671     1.007825032230
         H           -3.054754477474    -4.201563448739     0.886005006329     1.007825032230
         H            0.967531522526    -0.517405448739    -1.644235993671     1.007825032230
         H            3.088050522526    -0.138784448739     2.037677006329     1.007825032230
         H            2.847811522526    -1.771061448739    -2.601051993671     1.007825032230
         H            4.993176522526    -1.343137448739     1.062941006329     1.007825032230
         H           -3.107807477474     0.963509551261    -0.760045993671     1.007825032230
         H           -3.359774477474     3.530891551261    -1.473458993671     1.007825032230
         H            4.869060522526    -2.206487448739    -1.249273993671     1.007825032230

  Charge       = 0
  Multiplicity = 1
  Basis Set: 6-311+G*
    Blend: 6-311+G*
  Basis Set: (6-311+G* AUX)
    Blend: HEAVY-AUG-CC-PVTZ-JKFIT

    Orbital Energies [Eh]
    ---------------------

    Doubly Occupied:

       1A    -19.219228     2A    -14.473572     3A    -14.445870
       4A    -10.393095     5A    -10.349638     6A    -10.339660
       7A    -10.323049     8A    -10.308120     9A    -10.308001
      10A    -10.298793    11A    -10.297717    12A    -10.296447
      13A    -10.295773    14A    -10.295167    15A    -10.285672
      16A    -10.278579    17A    -10.278418    18A    -10.274245
      19A    -10.273177    20A    -10.268103    21A     -1.154341
      22A     -1.073332    23A     -1.058227    24A     -0.978515
      25A     -0.950053    26A     -0.917701    27A     -0.875229
      28A     -0.861863    29A     -0.844208    30A     -0.841827
      31A     -0.820070    32A     -0.774238    33A     -0.717573
      34A     -0.713431    35A     -0.707717    36A     -0.699862
      37A     -0.688399    38A     -0.648182    39A     -0.629843
      40A     -0.620236    41A     -0.608223    42A     -0.585875
      43A     -0.570063    44A     -0.560037    45A     -0.554714
      46A     -0.539596    47A     -0.532257    48A     -0.529285
      49A     -0.523655    50A     -0.522781    51A     -0.516313
      52A     -0.509787    53A     -0.502041    54A     -0.490287
      55A     -0.472844    56A     -0.464326    57A     -0.445305
      58A     -0.441980    59A     -0.436253    60A     -0.427507
      61A     -0.419407    62A     -0.392615    63A     -0.384469
      64A     -0.344356    65A     -0.343918    66A     -0.338715
      67A     -0.323006    68A     -0.292484    69A     -0.271839

  @DF-RKS Final Energy:  -840.83794339777603

   => Energetics <=

    Nuclear Repulsion Energy =           1428.1867306787012240
    One-Electron Energy =               -3975.3535617368443127
    Two-Electron Energy =                1789.1272425848205785
    DFT Exchange-Correlation Energy =     -82.7739388088232033
    Empirical Dispersion Energy =          -0.0244161156301423
    VV10 Nonlocal Energy =                  0.0000000000000000
    Total Energy =                       -840.8379433977759163
 Dipole X            :         -0.9899409           -0.6285359           -1.6184769
 Dipole Y            :          7.9815981           -8.1651568           -0.1835588
 Dipole Z            :          0.5102795           -0.5823912           -0.0721117
 Magnitude           :                                                    1.6304482
*** Psi4 exiting successfully. Buy a developer a beer!
