                               Psi4 1.6 release

  ==> Input File <==

--------------------------------------------------------------------------
molecule {
1 1
N -0.435012429324 -0.780801156081 -2.023528592331
N -1.859059153986 2.922608837645 -0.435726405021
N 3.927339865409 -1.277377160371 1.533334452596
N 7.515494290303 -0.417106585173 2.214966428262
C -2.077192303057 0.724097625497 -1.04469681169
C -3.339556737374 1.180403910452 -0.471003765836
C -1.754312869682 -0.490881836898 -1.554699965906
C -1.143038985891 1.904658615708 -1.03963354677
C -3.156133387753 2.529480287437 -0.102039333233
C -4.552124961876 0.551430818441 -0.200865069648
C -2.763000785494 -1.561050364915 -1.694489545373
C -4.161508243522 3.27392927492 0.499554932795
C -5.57055188505 1.296209035382 0.402780154119
C -2.88707368943 -2.567659192791 -0.728624074249
C -3.662138482136 -1.515261470961 -2.767789264567
C 0.626494128613 -0.827905604845 -1.121976651436
C -3.903946757414 -3.514929149191 -0.835419486359
C -4.671573996473 -2.470096657043 -2.874886836555
C 0.437839590571 -0.99251347264 0.256469854175
C 1.942466053247 -0.783418355869 -1.606638734841
C -4.799820801418 -3.464650862287 -1.904451731347
C 1.529058132786 -1.124345898448 1.108723673803
C 3.033894633305 -0.907490793896 -0.760640142678
C 2.837594415396 -1.036352827543 0.621804578074
C 5.158280638167 -0.767848107396 1.333351928054
C 3.640875135392 -2.170305721782 2.665862968907
C 6.267045931519 -1.129610294605 2.341726409572
C 7.581537525816 0.985399351399 2.564961461452
C 8.425320698131 -0.833739572902 1.153100973452
C 7.350504972824 1.954027253349 1.387374384804
C 8.868507867152 0.358858632823 0.30061108119
C 7.802150269216 2.1736621791 -1.039667677858
C -5.379013269574 2.641452998782 0.74918539946
C -6.855214191372 0.59328285913 0.661213033909
C -9.039598776509 0.765824641135 1.495286981479
O -0.004922525755 1.998096857301 -1.492891273546
O 5.419217372042 -0.022968363428 0.356169395852
O -7.773446871559 1.404734617344 1.233016585545
O -7.064269440433 -0.579534755936 0.390855024397
N 7.686205778333 1.245839784249 0.111794593337
H 7.908236369352 1.589418813268 -1.953697030655
H -4.74110282252 -0.485889930596 -0.455391804786
H -0.190845221687 -0.289928256985 -2.881895184116
H -1.49115644981 3.864363725684 -0.363782855692
H -4.009860523179 4.314877382664 0.773922407393
H -2.191703234051 -2.606630517173 0.106497837998
H -3.576883854429 -0.720369894742 -3.505936357516
H -4.005182292799 -4.28696734126 -0.077076585491
H -5.368678290464 -2.428500552733 -3.707664149637
H -0.563973939517 -1.020539759796 0.673419523586
H 2.110764060109 -0.677518111685 -2.676277277693
H -5.597751369627 -4.198187761271 -1.979807589994
H 1.337093147454 -1.22462516723 2.17247517335
H 4.030314487791 -0.881427466691 -1.178191136598
H 4.550423091658 -2.634470908863 3.036901809411
H 6.484740300322 -2.202171972381 2.269825282098
H 8.568334500836 1.18558837403 3.000119103664
H 7.91743268413 -1.557123884117 0.506572730573
H 7.985177893778 2.841869455053 1.467682687104
H 9.223955735589 0.033432920953 -0.67997696914
H 6.895878715061 2.777646906758 -1.090337107306
H 2.971405460916 -2.955569534393 2.317206447845
H 5.897520959421 -0.965262579153 3.360338429381
H 6.851939008194 1.190323288626 3.352979005569
H 9.321656359687 -1.32538520981 1.556501814718
H 6.307351081586 2.260996778582 1.294652080946
H 9.658157379565 0.949537979101 0.773667732855
H 8.673693941781 2.814253196011 -0.899300704445
H 3.164025341683 -1.627317913899 3.486079984048
H -6.189906357688 3.192748562374 1.213638615504
H -8.905496333707 -0.072828283912 2.179091346399
H -9.65744611959 1.539498202233 1.945244623879
H -9.481028157682 0.40631989866 0.565380840595
H 6.836685972817 0.620511554705 -0.004094039179
}
memory 208GB
set_num_threads(51)
psi4_io.set_default_path("/scratch/liuchw/Psi4-farH_in17")
set maxiter 500
set freeze_core True
set PROPERTIES_ORIGIN ["COM"]
set cubeprop_tasks ['esp']
set basis MINIX
E, wfn = properties('hf',properties=['dipole','WIBERG_LOWDIN_INDICES','MULLIKEN_CHARGES'],return_wfn=True)
cubeprop(wfn)
fchk(wfn, "farH_in17-esp_frag.fchk")
clean()
--------------------------------------------------------------------------

    Molecular point group: c1

    Geometry (in Angstrom), charge = 1, multiplicity = 1:

       Center              X                  Y                   Z               Mass
    ------------   -----------------  -----------------  -----------------  -----------------
         N           -0.612042877996    -0.786718454603    -2.052504986289    14.003074004430
         N           -2.036089602658     2.916691539123    -0.464702798979    14.003074004430
         N            3.750309416737    -1.283294458893     1.504358058638    14.003074004430
         N            7.338463841631    -0.423023883695     2.185990034304    14.003074004430
         C           -2.254222751729     0.718180326975    -1.073673205648    12.000000000000
         C           -3.516587186046     1.174486611930    -0.499980159794    12.000000000000
         C           -1.931343318354    -0.496799135420    -1.583676359864    12.000000000000
         C           -1.320069434563     1.898741317186    -1.068609940728    12.000000000000
         C           -3.333163836425     2.523562988915    -0.131015727191    12.000000000000
         C           -4.729155410548     0.545513519919    -0.229841463606    12.000000000000
         C           -2.940031234166    -1.566967663437    -1.723465939331    12.000000000000
         C           -4.338538692194     3.268011976398     0.470578538837    12.000000000000
         C           -5.747582333722     1.290291736860     0.373803760161    12.000000000000
         C           -3.064104138102    -2.573576491313    -0.757600468207    12.000000000000
         C           -3.839168930808    -1.521178769483    -2.796765658525    12.000000000000
         C            0.449463679941    -0.833822903367    -1.150953045394    12.000000000000
         C           -4.080977206086    -3.520846447713    -0.864395880317    12.000000000000
         C           -4.848604445145    -2.476013955565    -2.903863230513    12.000000000000
         C            0.260809141899    -0.998430771162     0.227493460217    12.000000000000
         C            1.765435604575    -0.789335654391    -1.635615128799    12.000000000000
         C           -4.976851250090    -3.470568160809    -1.933428125305    12.000000000000
         C            1.352027684114    -1.130263196970     1.079747279845    12.000000000000
         C            2.856864184633    -0.913408092418    -0.789616536636    12.000000000000
         C            2.660563966724    -1.042270126065     0.592828184116    12.000000000000
         C            4.981250189495    -0.773765405918     1.304375534096    12.000000000000
         C            3.463844686720    -2.176223020304     2.636886574949    12.000000000000
         C            6.090015482847    -1.135527593127     2.312750015614    12.000000000000
         C            7.404507077144     0.979482052877     2.535985067494    12.000000000000
         C            8.248290249459    -0.839656871424     1.124124579494    12.000000000000
         C            7.173474524152     1.948109954827     1.358397990846    12.000000000000
         C            8.691477418480     0.352941334301     0.271634687232    12.000000000000
         C            7.625119820544     2.167744880578    -1.068644071816    12.000000000000
         C           -5.556043718246     2.635535700260     0.720209005502    12.000000000000
         C           -7.032244640044     0.587365560608     0.632236639951    12.000000000000
         C           -9.216629225181     0.759907342613     1.466310587521    12.000000000000
         O           -0.181952974427     1.992179558779    -1.521867667504    15.994914619570
         O            5.242186923370    -0.028885661950     0.327193001894    15.994914619570
         O           -7.950477320231     1.398817318822     1.204040191587    15.994914619570
         O           -7.241299889105    -0.585452054458     0.361878630439    15.994914619570
         N            7.509175329661     1.239922485727     0.082818199379    14.003074004430
         H            7.731205920680     1.583501514746    -1.982673424613     1.007825032230
         H           -4.918133271192    -0.491807229118    -0.484368198744     1.007825032230
         H           -0.367875670359    -0.295845555507    -2.910871578074     1.007825032230
         H           -1.668186898482     3.858446427162    -0.392759249650     1.007825032230
         H           -4.186890971851     4.308960084142     0.744946013435     1.007825032230
         H           -2.368733682723    -2.612547815695     0.077521444040     1.007825032230
         H           -3.753914303101    -0.726287193264    -3.534912751474     1.007825032230
         H           -4.182212741471    -4.292884639782    -0.106052979449     1.007825032230
         H           -5.545708739136    -2.434417851255    -3.736640543595     1.007825032230
         H           -0.741004388189    -1.026457058318     0.644443129628     1.007825032230
         H            1.933733611437    -0.683435410207    -2.705253671651     1.007825032230
         H           -5.774781818299    -4.204105059793    -2.008783983952     1.007825032230
         H            1.160062698782    -1.230542465752     2.143498779392     1.007825032230
         H            3.853284039119    -0.887344765213    -1.207167530556     1.007825032230
         H            4.373392642986    -2.640388207385     3.007925415453     1.007825032230
         H            6.307709851650    -2.208089270903     2.240848888140     1.007825032230
         H            8.391304052164     1.179671075508     2.971142709706     1.007825032230
         H            7.740402235458    -1.563041182639     0.477596336615     1.007825032230
         H            7.808147445106     2.835952156531     1.438706293146     1.007825032230
         H            9.046925286917     0.027515622431    -0.708953363098     1.007825032230
         H            6.718848266389     2.771729608236    -1.119313501264     1.007825032230
         H            2.794375012244    -2.961486832915     2.288230053887     1.007825032230
         H            5.720490510749    -0.971179877675     3.331362035423     1.007825032230
         H            6.674908559522     1.184405990104     3.324002611611     1.007825032230
         H            9.144625911015    -1.331302508332     1.527525420760     1.007825032230
         H            6.130320632914     2.255079480060     1.265675686988     1.007825032230
         H            9.481126930893     0.943620680579     0.744691338897     1.007825032230
         H            8.496663493109     2.808335897489    -0.928277098403     1.007825032230
         H            2.986994893011    -1.633235212421     3.457103590090     1.007825032230
         H           -6.366936806360     3.186831263852     1.184662221546     1.007825032230
         H           -9.082526782379    -0.078745582434     2.150114952441     1.007825032230
         H           -9.834476568262     1.533580903711     1.916268229921     1.007825032230
         H           -9.658058606354     0.400402600138     0.536404446637     1.007825032230
         H            6.659655524145     0.614594256183    -0.033070433137     1.007825032230

  Charge       = 1
  Multiplicity = 1
  Basis Set: MINIX
    Blend: MINIX
  Basis Set: (MINIX AUX)
    Blend: DEF2-UNIVERSAL-JKFIT

    Orbital Energies [Eh]
    ---------------------

    Doubly Occupied:

       1A    -20.415681     2A    -20.393805     3A    -20.380656
       4A    -20.367249     5A    -15.719431     6A    -15.585289
       7A    -15.533991     8A    -15.530816     9A    -15.494360
      10A    -11.455926    11A    -11.402955    12A    -11.402112
      13A    -11.388968    14A    -11.382299    15A    -11.381801
      16A    -11.355763    17A    -11.354838    18A    -11.353635
      19A    -11.318177    20A    -11.318134    21A    -11.316802
      22A    -11.315531    23A    -11.305371    24A    -11.276513
      25A    -11.265422    26A    -11.262309    27A    -11.261350
      28A    -11.259055    29A    -11.258974    30A    -11.256219
      31A    -11.252815    32A    -11.249916    33A    -11.244852
      34A    -11.244391    35A    -11.243014    36A    -11.236291
      37A    -11.234994    38A    -11.233277    39A    -11.232197
      40A    -11.230776    41A     -1.512564    42A     -1.497466
      43A     -1.490364    44A     -1.457595    45A     -1.388428
      46A     -1.378679    47A     -1.368172    48A     -1.346361
      49A     -1.324843    50A     -1.234714    51A     -1.221067
      52A     -1.216244    53A     -1.215216    54A     -1.187795
      55A     -1.161030    56A     -1.123211    57A     -1.106003
      58A     -1.103813    59A     -1.098959    60A     -1.080372
      61A     -1.078052    62A     -1.076469    63A     -1.058881
      64A     -1.054558    65A     -1.042004    66A     -1.012354
      67A     -0.976297    68A     -0.958485    69A     -0.928018
      70A     -0.919652    71A     -0.917795    72A     -0.894947
      73A     -0.883069    74A     -0.880032    75A     -0.868129
      76A     -0.867241    77A     -0.848744    78A     -0.842547
      79A     -0.830649    80A     -0.814637    81A     -0.809862
      82A     -0.802026    83A     -0.791429    84A     -0.785373
      85A     -0.780129    86A     -0.766194    87A     -0.760920
      88A     -0.760030    89A     -0.755658    90A     -0.747360
      91A     -0.732246    92A     -0.731727    93A     -0.728162
      94A     -0.723968    95A     -0.715520    96A     -0.712634
      97A     -0.707704    98A     -0.705250    99A     -0.699413
     100A     -0.693986   101A     -0.689698   102A     -0.687296
     103A     -0.680067   104A     -0.678234   105A     -0.677432
     106A     -0.671176   107A     -0.668724   108A     -0.664901
     109A     -0.660207   110A     -0.656838   111A     -0.649427
     112A     -0.646679   113A     -0.644115   114A     -0.641508
     115A     -0.636023   116A     -0.629285   117A     -0.623675
     118A     -0.615368   119A     -0.611836   120A     -0.606576
     121A     -0.600490   122A     -0.582688   123A     -0.574616
     124A     -0.572284   125A     -0.561486   126A     -0.549467
     127A     -0.546218   128A     -0.538688   129A     -0.536172
     130A     -0.533721   131A     -0.511269   132A     -0.484560
     133A     -0.484080   134A     -0.474097   135A     -0.471170
     136A     -0.467276   137A     -0.463766   138A     -0.431615
     139A     -0.407086   140A     -0.404225   141A     -0.397785
     142A     -0.363359   143A     -0.359694

  @DF-RHF Final Energy: -1753.12068283612075

   => Energetics <=

    Nuclear Repulsion Energy =           4340.6304344433920051
    One-Electron Energy =              -11001.0109818626806373
    Two-Electron Energy =                4907.2598645831676549
    Total Energy =                      -1753.1206828361209773
 Dipole X            :        -40.4255772           51.1890122           10.7634350
 Dipole Y            :          4.1675921           -2.5981391            1.5694530
 Dipole Z            :        -11.0493306           12.7604435            1.7111129
 Magnitude           :                                                   11.0110228

  Mulliken Charges: (a.u.)
   Center  Symbol    Alpha    Beta     Spin     Total
       1     N     3.69940  3.69940  0.00000 -0.39880
       2     N     3.70476  3.70476  0.00000 -0.40952
       3     N     3.65357  3.65357  0.00000 -0.30715
       4     N     3.66057  3.66057  0.00000 -0.32115
       5     C     3.02366  3.02366  0.00000 -0.04732
       6     C     3.02557  3.02557  0.00000 -0.05114
       7     C     2.92632  2.92632  0.00000  0.14736
       8     C     2.80269  2.80269  0.00000  0.39462
       9     C     2.93508  2.93508  0.00000  0.12983
      10     C     3.04602  3.04602  0.00000 -0.09204
      11     C     3.01338  3.01338  0.00000 -0.02676
      12     C     3.08262  3.08262  0.00000 -0.16524
      13     C     3.03111  3.03111  0.00000 -0.06221
      14     C     3.06441  3.06441  0.00000 -0.12883
      15     C     3.06361  3.06361  0.00000 -0.12722
      16     C     2.93476  2.93476  0.00000  0.13049
      17     C     3.06727  3.06727  0.00000 -0.13455
      18     C     3.06711  3.06711  0.00000 -0.13422
      19     C     3.07780  3.07780  0.00000 -0.15561
      20     C     3.07226  3.07226  0.00000 -0.14453
      21     C     3.06436  3.06436  0.00000 -0.12871
      22     C     3.06637  3.06637  0.00000 -0.13273
      23     C     3.06248  3.06248  0.00000 -0.12495
      24     C     2.96259  2.96259  0.00000  0.07483
      25     C     2.80009  2.80009  0.00000  0.39982
      26     C     3.12296  3.12296  0.00000 -0.24591
      27     C     3.07347  3.07347  0.00000 -0.14695
      28     C     3.06891  3.06891  0.00000 -0.13782
      29     C     3.06761  3.06761  0.00000 -0.13522
      30     C     3.06227  3.06227  0.00000 -0.12453
      31     C     3.06266  3.06266  0.00000 -0.12532
      32     C     3.12095  3.12095  0.00000 -0.24190
      33     C     3.04700  3.04700  0.00000 -0.09399
      34     C     2.75874  2.75874  0.00000  0.48253
      35     C     3.08433  3.08433  0.00000 -0.16865
      36     O     4.20777  4.20777  0.00000 -0.41555
      37     O     4.25263  4.25263  0.00000 -0.50525
      38     O     4.21384  4.21384  0.00000 -0.42769
      39     O     4.20859  4.20859  0.00000 -0.41718
      40     N     3.66599  3.66599  0.00000 -0.33197
      41     H     0.41239  0.41239  0.00000  0.17523
      42     H     0.40785  0.40785  0.00000  0.18431
      43     H     0.36651  0.36651  0.00000  0.26697
      44     H     0.35630  0.35630  0.00000  0.28739
      45     H     0.42509  0.42509  0.00000  0.14981
      46     H     0.43060  0.43060  0.00000  0.13879
      47     H     0.42821  0.42821  0.00000  0.14358
      48     H     0.42641  0.42641  0.00000  0.14719
      49     H     0.42541  0.42541  0.00000  0.14918
      50     H     0.42716  0.42716  0.00000  0.14568
      51     H     0.42830  0.42830  0.00000  0.14341
      52     H     0.42466  0.42466  0.00000  0.15068
      53     H     0.42847  0.42847  0.00000  0.14306
      54     H     0.42215  0.42215  0.00000  0.15571
      55     H     0.42775  0.42775  0.00000  0.14451
      56     H     0.41677  0.41677  0.00000  0.16646
      57     H     0.42288  0.42288  0.00000  0.15423
      58     H     0.42554  0.42554  0.00000  0.14891
      59     H     0.41726  0.41726  0.00000  0.16548
      60     H     0.41320  0.41320  0.00000  0.17361
      61     H     0.40989  0.40989  0.00000  0.18022
      62     H     0.41739  0.41739  0.00000  0.16522
      63     H     0.41802  0.41802  0.00000  0.16397
      64     H     0.41758  0.41758  0.00000  0.16483
      65     H     0.41948  0.41948  0.00000  0.16104
      66     H     0.41240  0.41240  0.00000  0.17519
      67     H     0.41668  0.41668  0.00000  0.16665
      68     H     0.41442  0.41442  0.00000  0.17117
      69     H     0.42572  0.42572  0.00000  0.14856
      70     H     0.41325  0.41325  0.00000  0.17351
      71     H     0.42431  0.42431  0.00000  0.15139
      72     H     0.42332  0.42332  0.00000  0.15336
      73     H     0.42387  0.42387  0.00000  0.15226
      74     H     0.30522  0.30522  0.00000  0.38957

   Total alpha = 143.00000, Total beta = 143.00000, Total charge =  1.00000

  Basis Set: MINIX
    Blend: MINIX
*** Psi4 exiting successfully. Buy a developer a beer!
