                               Psi4 1.9.1 release

  ==> Input File <==

--------------------------------------------------------------------------
molecule {
0 1
 O    1.144800   -0.560000   -0.793100
 C    0.459900    0.246900    0.144500
 C   -1.016300   -0.115200    0.103100
 H    0.591200    1.311100   -0.101800
 H    0.858700    0.076900    1.155700
 H   -1.407400    0.055400   -0.895600
 H   -1.569000    0.490600    0.815200
 H   -1.142800   -1.165600    0.348500
 H    2.080900   -0.340100   -0.776400
}
set {
  geom_maxiter 400
  g_convergence GAU_LOOSE
  dynamic_level 1
}
geometric_keywords = {
 'coordsys' : 'tric',
 'convergence_cmax' : 1e0,
 'convergence_set' : 'GAU_LOOSE',
 'convergence_energy' : 1e-4,
 'constraints' : {
 'set' : [
       {'type'    : 'dihedral', 'indices' : [ 8 , 0 , 1 , 3 ], 'value' : 59.6714 }
     , {'type'    : 'dihedral', 'indices' : [ 3 , 1 , 2 , 5 ], 'value' : 60.9745 }
    ]
  }
}
set optking {
  frozen_dihedral = ("
   9 1 2 4
   4 2 3 6
  ")
}
memory 16GB
set_num_threads(8)
psi4_io.set_default_path("/scratch/liuchw/Psi4-ethanol")
basis {
assign 6-31G*
}
opt_finished = False
if not opt_finished:
    try:
        ener, opt_hist = optimize('mp2',engine='geometric',optimizer_keywords=geometric_keywords, return_history=True)
        opt_finished = len(opt_hist['energy']) < 400
    except Exception as e:
        core.print_out('Exception: %s'%(e))
if not opt_finished:
    try:
        optimize('mp2')
    except:
        set opt_coordinates both
        optimize('mp2')
    opt_finished = True
clean()
assert opt_finished

--------------------------------------------------------------------------

    Molecular point group: c1
  Charge       = 0
  Multiplicity = 1
  Basis Set: ANONYMOUS6A26B6C9
    Blend: 6-31G*
  Basis Set: (ANONYMOUS6A26B6C9 AUX)
    Blend: CC-PVDZ-JKFIT
  @DF-RHF Final Energy:  -154.07508450836627
    Total Energy =                       -154.0750845083662739
 Dipole X            :          2.1925169           -1.8961306            0.2963864
 Dipole Y            :         -0.7738285            1.2480174            0.4741889
 Dipole Z            :         -1.2259211            1.6282321            0.4023111
 Magnitude           :                                                    0.6888789
  Basis Set: (ANONYMOUS6A26B6C9 AUX)
    Blend: CC-PVDZ-RI
    Molecular point group: c1
  Basis Set: ANONYMOUS6A26B6C9
    Blend: 6-31G*
  Basis Set: (ANONYMOUS6A26B6C9 AUX)
    Blend: CC-PVDZ-JKFIT
  Basis Set: (ANONYMOUS6A26B6C9 AUX)
    Blend: CC-PVDZ-JKFIT
	 Reference Energy          =    -154.0750845083662739 [Eh]
	 Singles Energy            =      -0.0000000000000000 [Eh]
	 Same-Spin Energy          =      -0.1100399325370835 [Eh]
	 Opposite-Spin Energy      =      -0.3430203218010911 [Eh]
	 Correlation Energy        =      -0.4530602543381746 [Eh]
	 Total Energy              =    -154.5281447627044429 [Eh]
	 SCS Total Energy          =    -154.5233888720399307 [Eh]
  @DF-RHF Final Energy:  -154.07435783128551
    Total Energy =                       -154.0743578312855107
  Charge       = 0
  Multiplicity = 1
  Basis Set: ANONYMOUS6A26B6C9
    Blend: 6-31G*
  Basis Set: (ANONYMOUS6A26B6C9 AUX)
    Blend: CC-PVDZ-JKFIT

    Orbital Energies [Eh]
    ---------------------

    Doubly Occupied:

       1A    -20.557093     2A    -11.274987     3A    -11.211967
       4A     -1.347902     5A     -1.010036     6A     -0.830779
       7A     -0.691943     8A     -0.641423     9A     -0.565103
      10A     -0.530067    11A     -0.521673    12A     -0.485505
      13A     -0.436935

  @DF-RHF Final Energy:  -154.07428957714694

   => Energetics <=

    Nuclear Repulsion Energy =             81.8132321663472197
    One-Electron Energy =                -371.5642206024135703
    Two-Electron Energy =                 135.6766988589193943
    Total Energy =                       -154.0742895771469421
 Dipole X            :          2.2650401           -1.9623747            0.3026654
 Dipole Y            :         -0.6337079            1.1243782            0.4906703
 Dipole Z            :         -1.1369171            1.5515661            0.4146490
 Magnitude           :                                                    0.7101391
  Basis Set: (ANONYMOUS6A26B6C9 AUX)
    Blend: CC-PVDZ-RI
    Molecular point group: c1
  Basis Set: ANONYMOUS6A26B6C9
    Blend: 6-31G*
  Basis Set: (ANONYMOUS6A26B6C9 AUX)
    Blend: CC-PVDZ-JKFIT
  Basis Set: (ANONYMOUS6A26B6C9 AUX)
    Blend: CC-PVDZ-JKFIT
	 Reference Energy          =    -154.0742895771469421 [Eh]
	 Singles Energy            =      -0.0000000000000000 [Eh]
	 Same-Spin Energy          =      -0.1103079376967467 [Eh]
	 Opposite-Spin Energy      =      -0.3440356866855808 [Eh]
	 Correlation Energy        =      -0.4543436243823275 [Eh]
	 Total Energy              =    -154.5286332015292601 [Eh]

	 ================> DF-SCS-MP2 Energies <==================
	-----------------------------------------------------------
	 SCS Same-Spin Scale       =       0.3333333333333333 [-]
	 SCS Opposite-Spin Scale   =       1.2000000000000000 [-]
	 SCS Same-Spin Energy      =      -0.0367693125655822 [Eh]
	 SCS Opposite-Spin Energy  =      -0.4128428240226969 [Eh]
	 SCS Correlation Energy    =      -0.4496121365882791 [Eh]
	 SCS Total Energy          =    -154.5239017137352278 [Eh]
	-----------------------------------------------------------

  -Total Gradient:
     Atom            X                  Y                   Z
    ------   -----------------  -----------------  -----------------
       1       -0.000439234558     0.000211229164     0.000308313478
       2        0.000768646470    -0.000547166211    -0.000618704825
       3       -0.000233636091    -0.000007540374     0.000057729633
       4       -0.000161943240     0.000084904713     0.000165259168
       5       -0.000128771678     0.000175623883     0.000134544920
       6       -0.000083936817     0.000085269770    -0.000162153415
       7       -0.000222130321     0.000168023017     0.000193957138
       8        0.000002704107    -0.000156432092     0.000050234024
       9        0.000498302128    -0.000013911869    -0.000129180122

    Molecular point group: c1

    Geometry (in Angstrom), charge = 0, multiplicity = 1:

    O            0.891446259021    -0.422960791757    -0.602533196087
    C            0.221489876724     0.403001706232     0.348589495070
    C           -1.245550341495     0.036624764940     0.300862970725
    H            0.352841345325     1.467474511474     0.108242190814
    H            0.618999237977     0.241486965895     1.360557498084
    H           -1.640994550088     0.209345302564    -0.702206833085
    H           -1.817812548941     0.637060923394     1.013724945062
    H           -1.374438568843    -1.019518173828     0.546241924624
    H            1.835753840502    -0.194926701431    -0.581955529617

*** Psi4 exiting successfully. Buy a developer a beer!
