                               Psi4 1.9.1 release

  ==> Input File <==

--------------------------------------------------------------------------
molecule {
0 1
O 0.891446259021 -0.422960791757 -0.602533196087
C 0.221489876724 0.403001706232 0.34858949507
C -1.245550341495 0.03662476494 0.300862970725
H 0.352841345325 1.467474511474 0.108242190814
H 0.618999237977 0.241486965895 1.360557498084
H -1.640994550088 0.209345302564 -0.702206833085
H -1.817812548941 0.637060923394 1.013724945062
H -1.374438568843 -1.019518173828 0.546241924624
H 1.835753840502 -0.194926701431 -0.581955529617
}
memory 16GB
set_num_threads(8)
psi4_io.set_default_path("/scratch/liuchw/Psi4-ethanol")
set maxiter 500
set freeze_core True
set PROPERTIES_ORIGIN ["COM"]
set cubeprop_tasks ['esp']
set basis aug-cc-pVTZ
E, wfn = properties('mp2',properties=['dipole','GRID_ESP','WIBERG_LOWDIN_INDICES','MULLIKEN_CHARGES'],return_wfn=True)
cubeprop(wfn)
fchk(wfn, "ethanol-esp.fchk")
clean()
--------------------------------------------------------------------------

    Molecular point group: c1
  Charge       = 0
  Multiplicity = 1
  Basis Set: AUG-CC-PVTZ
    Blend: AUG-CC-PVTZ
  Basis Set: (AUG-CC-PVTZ AUX)
    Blend: AUG-CC-PVTZ-JKFIT

    Orbital Energies [Eh]
    ---------------------

    Doubly Occupied:

       1A    -20.557526     2A    -11.275614     3A    -11.212216
       4A     -1.354354     5A     -1.011306     6A     -0.832348
       7A     -0.696702     8A     -0.643967     9A     -0.570198
      10A     -0.531833    11A     -0.524193    12A     -0.488993
      13A     -0.442648

  @DF-RHF Final Energy:  -154.14446523038356

   => Energetics <=

    Nuclear Repulsion Energy =             81.8132321663459265
    One-Electron Energy =                -371.6315974232691133
    Two-Electron Energy =                 135.6739000265396271
    Total Energy =                       -154.1444652303835596
  Basis Set: (AUG-CC-PVTZ AUX)
    Blend: AUG-CC-PVTZ-RI
    Molecular point group: c1

    Geometry (in Angstrom), charge = 0, multiplicity = 1:

       Center              X                  Y                   Z               Mass
    ------------   -----------------  -----------------  -----------------  -----------------
         O            0.893001817357    -0.419957253441    -0.600670073085    15.994914619570
         C            0.223045435060     0.406005244548     0.350452618072    12.000000000000
         C           -1.243994783159     0.039628303256     0.302726093727    12.000000000000
         H            0.354396903661     1.470478049790     0.110105313816     1.007825032230
         H            0.620554796313     0.244490504211     1.362420621086     1.007825032230
         H           -1.639438991752     0.212348840880    -0.700343710083     1.007825032230
         H           -1.816256990605     0.640064461710     1.015588068064     1.007825032230
         H           -1.372883010507    -1.016514635512     0.548105047626     1.007825032230
         H            1.837309398838    -0.191923163115    -0.580092406615     1.007825032230

  Basis Set: AUG-CC-PVTZ
    Blend: AUG-CC-PVTZ
  Basis Set: (AUG-CC-PVTZ AUX)
    Blend: AUG-CC-PVTZ-JKFIT
	 Reference Energy          =    -154.1444652303835596 [Eh]
	 Singles Energy            =      -0.0000000000000000 [Eh]
	 Same-Spin Energy          =      -0.1398489215451471 [Eh]
	 Opposite-Spin Energy      =      -0.4737779216608964 [Eh]
	 Correlation Energy        =      -0.6136268432060434 [Eh]
	 Total Energy              =    -154.7580920735896086 [Eh]

	 ================> DF-SCS-MP2 Energies <==================
	-----------------------------------------------------------
	 SCS Same-Spin Scale       =       0.3333333333333333 [-]
	 SCS Opposite-Spin Scale   =       1.2000000000000000 [-]
	 SCS Same-Spin Energy      =      -0.0466163071817157 [Eh]
	 SCS Opposite-Spin Energy  =      -0.5685335059930756 [Eh]
	 SCS Correlation Energy    =      -0.6151498131747913 [Eh]
	 SCS Total Energy          =    -154.7596150435583411 [Eh]
	-----------------------------------------------------------

 Dipole X            :          2.1324538           -1.8859456            0.2465082
 Dipole Y            :         -0.8281014            1.2719507            0.4438493
 Dipole Z            :         -1.2622047            1.6431067            0.3809020
 Magnitude           :                                                    0.6347085

  Mulliken Charges: (a.u.)
   Center  Symbol    Alpha    Beta     Spin     Total
       1     O     4.24184  4.24184  0.00000 -0.48368
       2     C     3.13190  3.13190  0.00000 -0.26380
       3     C     3.48037  3.48037  0.00000 -0.96074
       4     H     0.35199  0.35199  0.00000  0.29603
       5     H     0.35203  0.35203  0.00000  0.29594
       6     H     0.34220  0.34220  0.00000  0.31560
       7     H     0.34133  0.34133  0.00000  0.31733
       8     H     0.34207  0.34207  0.00000  0.31586
       9     H     0.41627  0.41627  0.00000  0.16747

   Total alpha = 13.00000, Total beta = 13.00000, Total charge =  0.00000

  Basis Set: AUG-CC-PVTZ
    Blend: AUG-CC-PVTZ
*** Psi4 exiting successfully. Buy a developer a beer!
