                               Psi4 1.9.1 release

  ==> Input File <==

--------------------------------------------------------------------------
molecule {
0 1
O 0.891446259021 -0.422960791757 -0.602533196087
C 0.221489876724 0.403001706232 0.34858949507
C -1.245550341495 0.03662476494 0.300862970725
H 0.352841345325 1.467474511474 0.108242190814
H 0.618999237977 0.241486965895 1.360557498084
H -1.640994550088 0.209345302564 -0.702206833085
H -1.817812548941 0.637060923394 1.013724945062
H -1.374438568843 -1.019518173828 0.546241924624
H 1.835753840502 -0.194926701431 -0.581955529617
no_reorient
}
memory 16GB
set_num_threads(8)
psi4_io.set_default_path("/scratch/liuchw/Psi4-ethanol")
set freeze_core True
set PROPERTIES_ORIGIN ["COM"]
set cubeprop_tasks ['esp']
set basis 6-311G**
E, wfn = properties('mp2',properties=['dipole'],return_wfn=True)
cubeprop(wfn)
fchk(wfn, "ethanol-dma.fchk")
clean()
--------------------------------------------------------------------------

    Molecular point group: c1
  Charge       = 0
  Multiplicity = 1
  Basis Set: 6-311G**
    Blend: 6-311G**
  Basis Set: (6-311G** AUX)
    Blend: CC-PVTZ-JKFIT

    Orbital Energies [Eh]
    ---------------------

    Doubly Occupied:

       1A    -20.544841     2A    -11.273980     3A    -11.211469
       4A     -1.348979     5A     -1.010061     6A     -0.831032
       7A     -0.692825     8A     -0.641987     9A     -0.566242
      10A     -0.530178    11A     -0.522019    12A     -0.486057
      13A     -0.439084

  @DF-RHF Final Energy:  -154.12394710043947

   => Energetics <=

    Nuclear Repulsion Energy =             81.8132321663459265
    One-Electron Energy =                -371.6768502590407479
    Two-Electron Energy =                 135.7396709922553555
    Total Energy =                       -154.1239471004394659
  Basis Set: (6-311G** AUX)
    Blend: CC-PVTZ-RI
    Molecular point group: c1

    Geometry (in Angstrom), charge = 0, multiplicity = 1:

       Center              X                  Y                   Z               Mass
    ------------   -----------------  -----------------  -----------------  -----------------
         O            0.893001817357    -0.419957253441    -0.600670073085    15.994914619570
         C            0.223045435060     0.406005244548     0.350452618072    12.000000000000
         C           -1.243994783159     0.039628303256     0.302726093727    12.000000000000
         H            0.354396903661     1.470478049790     0.110105313816     1.007825032230
         H            0.620554796313     0.244490504211     1.362420621086     1.007825032230
         H           -1.639438991752     0.212348840880    -0.700343710083     1.007825032230
         H           -1.816256990605     0.640064461710     1.015588068064     1.007825032230
         H           -1.372883010507    -1.016514635512     0.548105047626     1.007825032230
         H            1.837309398838    -0.191923163115    -0.580092406615     1.007825032230

  Basis Set: 6-311G**
    Blend: 6-311G**
  Basis Set: (6-311G** AUX)
    Blend: CC-PVTZ-JKFIT
	 Reference Energy          =    -154.1239471004394659 [Eh]
	 Singles Energy            =      -0.0000000000000000 [Eh]
	 Same-Spin Energy          =      -0.1204879551353304 [Eh]
	 Opposite-Spin Energy      =      -0.3919487371513428 [Eh]
	 Correlation Energy        =      -0.5124366922866732 [Eh]
	 Total Energy              =    -154.6363837927261500 [Eh]

	 ================> DF-SCS-MP2 Energies <==================
	-----------------------------------------------------------
	 SCS Same-Spin Scale       =       0.3333333333333333 [-]
	 SCS Opposite-Spin Scale   =       1.2000000000000000 [-]
	 SCS Same-Spin Energy      =      -0.0401626517117768 [Eh]
	 SCS Opposite-Spin Energy  =      -0.4703384845816113 [Eh]
	 SCS Correlation Energy    =      -0.5105011362933881 [Eh]
	 SCS Total Energy          =    -154.6344482367328510 [Eh]
	-----------------------------------------------------------

 Dipole X            :          2.1980175           -1.8859456            0.3120719
 Dipole Y            :         -0.8404159            1.2719507            0.4315348
 Dipole Z            :         -1.2882702            1.6431067            0.3548365
 Magnitude           :                                                    0.6399376
  Basis Set: 6-311G**
    Blend: 6-311G**
*** Psi4 exiting successfully. Buy a developer a beer!
