   * xtb version 6.5.0 (97a52f5) compiled by 'conda@d2599ee0d4f4' on 2022-05-15
          program call               : /home/liuchw/anaconda3/envs/xtbenv/bin/xtb --gfn 2 --chrg 0 --uhf 0 25_27_Index_0-opt-2-3-300_preQMOPTprefit_xyzformat.xyz --opt --input xtb-opt-2-3-300_constr.txt

   ID    Z sym.   atoms
    1    7 N      1, 4
    2    6 C      2, 3
    3    8 O      5
    4    1 H      6-11
constraining angle 1 2 3 4 to  299.9727194°, actual value:  -60.0272806°
constraining angle 8 1 2 3 to  175.0124760°, actual value:  175.0124760°
constraining angle 8 1 2 5 to  350.0309622°, actual value:   -9.9690378°
constraining angle 9 1 2 5 to  197.9860029°, actual value: -162.0139971°
constraining angle 9 1 2 3 to   22.9675167°, actual value:   22.9675167°
constraining angle 6 3 4 11 to   78.2831269°, actual value:   78.2831269°
constraining angle 7 3 4 11 to  198.7793382°, actual value: -161.2206618°
constraining angle 6 3 4 10 to  321.7162384°, actual value:  -38.2837616°
constraining angle 7 3 4 10 to   82.2124497°, actual value:   82.2124497°

          :  Hamiltonian                  GFN2-xTB          :
 * total energy  :   -17.2308797 Eh     change       -0.1416112E-10 Eh
 * total energy  :   -17.2340301 Eh     change       -0.3150400E-02 Eh
 * total energy  :   -17.2336704 Eh     change        0.3596984E-03 Eh
 * total energy  :   -17.2343538 Eh     change       -0.6833856E-03 Eh
 * total energy  :   -17.2343641 Eh     change       -0.1026905E-04 Eh
 * total energy  :   -17.2344015 Eh     change       -0.3742268E-04 Eh
 * total energy  :   -17.2344058 Eh     change       -0.4268607E-05 Eh
 * total energy  :   -17.2344096 Eh     change       -0.3831840E-05 Eh
 * total energy  :   -17.2344101 Eh     change       -0.5046375E-06 Eh
 * total energy  :   -17.2344105 Eh     change       -0.3856967E-06 Eh
   *** GEOMETRY OPTIMIZATION CONVERGED AFTER 10 ITERATIONS ***

 final structure:
================
11
 xtb: 6.5.0 (97a52f5)
N           -1.45068922276342       -0.07223911166881        0.31031674726891
C           -0.39651858247106       -0.74324584250373       -0.21318515163562
C            0.82831867793465       -0.69114433178415        0.69294929732589
N            1.22994180828079        0.70332480033513        0.89052101896732
O           -0.45297678250148       -1.38728535146790       -1.23445457908451
H            1.61566265491119       -1.32818166742274        0.26976260303110
H            0.53968583922439       -1.09880243473009        1.66816829777533
H           -2.28174248797492        0.01333560353311       -0.25424441293912
H           -1.27006858494476        0.64817122145359        0.98970532685555
H            2.19123615333544        0.74584594609282        1.21168003190917
H            1.20255351696923        1.19192315816269       -0.00083917947397

          :  Hamiltonian                  GFN2-xTB          :
         :: total energy             -17.234410474217 Eh    ::
         :: gradient norm              0.000531249848 Eh/a0 ::
         :: HOMO-LUMO gap              4.609815294758 eV    ::
         :: SCC energy               -17.424809756726 Eh    ::
         :: -> dispersion             -0.005219579416 Eh    ::
         :: repulsion energy           0.190391437783 Eh    ::

    * Orbital Energies and Occupations

         #    Occupation            Energy/Eh            Energy/eV
      -------------------------------------------------------------
         1        2.0000           -0.7027388             -19.1225
       ...           ...                  ...                  ...
         3        2.0000           -0.6441225             -17.5275
         4        2.0000           -0.6072871             -16.5251
         5        2.0000           -0.5838349             -15.8870
         6        2.0000           -0.5662619             -15.4088
         7        2.0000           -0.5503760             -14.9765
         8        2.0000           -0.5405241             -14.7084
         9        2.0000           -0.5188849             -14.1196
        10        2.0000           -0.5063457             -13.7784
        11        2.0000           -0.4860603             -13.2264
        12        2.0000           -0.4784616             -13.0196
        13        2.0000           -0.4246585             -11.5555
        14        2.0000           -0.3979554             -10.8289
        15        2.0000           -0.3857606             -10.4971 (HOMO)
        16                         -0.2163530              -5.8873 (LUMO)
        17                          0.0138079               0.3757
        18                          0.0509908               1.3875
        19                          0.0980669               2.6685
        20                          0.1218518               3.3158
        21                          0.1612870               4.3888
        22                          0.1913346               5.2065
        23                          0.2230631               6.0699
        24                          0.2356277               6.4118
        25                          0.3423919               9.3170
        26                          0.6488799              17.6569
      -------------------------------------------------------------
                  HL-Gap            0.1694076 Eh            4.6098 eV

     #   Z          covCN         q      C6AA      α(0)
     1   7 N        2.640    -0.271    27.026     7.721
     2   6 C        2.744     0.282    22.230     7.720
     3   6 C        3.736    -0.014    20.908     6.525
     4   7 N        2.630    -0.344    28.856     7.978
     5   8 O        0.858    -0.419    22.074     6.299
     6   1 H        0.924     0.038     2.474     2.460
     7   1 H        0.924     0.055     2.262     2.352
     8   1 H        0.860     0.191     1.155     1.683
     9   1 H        0.860     0.198     1.118     1.656
    10   1 H        0.860     0.146     1.428     1.872
    11   1 H        0.860     0.140     1.474     1.902

Wiberg/Mayer (AO) data.
largest (>0.10) Wiberg bond orders for each atom

     #   Z sym  total        # sym  WBO       # sym  WBO       # sym  WBO
 ---------------------------------------------------------------------------
     1   7 N    3.359 --     2 C    1.249     8 H    0.943     9 H    0.940
                             5 O    0.198
     2   6 C    3.948 --     5 O    1.722     1 N    1.249     3 C    0.955
     3   6 C    3.985 --     4 N    1.015     6 H    0.972     7 H    0.960
                             2 C    0.955
     4   7 N    2.995 --     3 C    1.015    11 H    0.967    10 H    0.965
     5   8 O    2.022 --     2 C    1.722     1 N    0.198
     6   1 H    0.999 --     3 C    0.972
     7   1 H    0.997 --     3 C    0.960
     8   1 H    0.964 --     1 N    0.943
     9   1 H    0.961 --     1 N    0.940
    10   1 H    0.979 --     4 N    0.965
    11   1 H    0.980 --     4 N    0.967
 ---------------------------------------------------------------------------

molecular dipole:
                 x           y           z       tot (Debye)
 q only:       -0.131       0.860       0.913
   full:        0.115       1.004       0.810       3.292

           -------------------------------------------------
          | TOTAL ENERGY              -17.234410474217 Eh   |
          | GRADIENT NORM               0.000531249848 Eh/α |
          | HOMO-LUMO GAP               4.609815294758 eV   |
           -------------------------------------------------

 * finished run on 2023/11/18 at 08:08:25.958
