   * xtb version 6.5.0 (97a52f5) compiled by 'conda@d2599ee0d4f4' on 2022-05-15
          program call               : /home/liuchw/anaconda3/envs/xtbenv/bin/xtb --gfn 2 --chrg 0 --uhf 0 25_27_Index_0-opt-2-3-270_preQMOPTprefit_xyzformat.xyz --opt --input xtb-opt-2-3-270_constr.txt

   ID    Z sym.   atoms
    1    7 N      1, 4
    2    6 C      2, 3
    3    8 O      5
    4    1 H      6-11
constraining angle 1 2 3 4 to  270.0261788°, actual value:  -89.9738212°
constraining angle 8 1 2 3 to  175.0112243°, actual value:  175.0112243°
constraining angle 8 1 2 5 to  350.0288902°, actual value:   -9.9711098°
constraining angle 9 1 2 5 to  197.9943053°, actual value: -162.0056947°
constraining angle 9 1 2 3 to   22.9766394°, actual value:   22.9766394°
constraining angle 6 3 4 11 to   78.2902603°, actual value:   78.2902603°
constraining angle 7 3 4 11 to  198.7796372°, actual value: -161.2203628°
constraining angle 6 3 4 10 to  321.7211331°, actual value:  -38.2788669°
constraining angle 7 3 4 10 to   82.2105100°, actual value:   82.2105100°

          :  Hamiltonian                  GFN2-xTB          :
 * total energy  :   -17.2298060 Eh     change       -0.1085922E-09 Eh
 * total energy  :   -17.2326209 Eh     change       -0.2814897E-02 Eh
 * total energy  :   -17.2322974 Eh     change        0.3234432E-03 Eh
 * total energy  :   -17.2328351 Eh     change       -0.5376874E-03 Eh
 * total energy  :   -17.2328472 Eh     change       -0.1214244E-04 Eh
 * total energy  :   -17.2328562 Eh     change       -0.8934947E-05 Eh
 * total energy  :   -17.2328574 Eh     change       -0.1207340E-05 Eh
 * total energy  :   -17.2328585 Eh     change       -0.1148939E-05 Eh
 * total energy  :   -17.2328585 Eh     change        0.5990585E-07 Eh
 * total energy  :   -17.2328586 Eh     change       -0.1449400E-06 Eh
   *** GEOMETRY OPTIMIZATION CONVERGED AFTER 10 ITERATIONS ***

 final structure:
================
11
 xtb: 6.5.0 (97a52f5)
N           -1.56295347714855       -0.22381436989629        0.33483394340364
C           -0.38406124884094       -0.58986797380169       -0.22423008833985
C            0.78087476085175       -0.61314528347129        0.75960005721064
N            1.41053269036634        0.70854550471691        0.76908691276932
O           -0.28534471343244       -0.95417844726905       -1.37307829398471
H            1.46440152645249       -1.42074455121884        0.46320549328499
H            0.41168771981008       -0.82050245791147        1.76889922247655
H           -2.35325697320261       -0.11504886403330       -0.28301144256905
H           -1.56506031405091        0.31871818395979        1.18151148224385
H            2.36069380580912        0.63904121026913        1.11872940102559
H            1.47788822338565        1.05269903865608       -0.18516769752097

          :  Hamiltonian                  GFN2-xTB          :
         :: total energy             -17.232858614625 Eh    ::
         :: gradient norm              0.000365219579 Eh/a0 ::
         :: HOMO-LUMO gap              4.416461789430 eV    ::
         :: SCC energy               -17.423074996643 Eh    ::
         :: -> dispersion             -0.005193819554 Eh    ::
         :: repulsion energy           0.190208224389 Eh    ::

    * Orbital Energies and Occupations

         #    Occupation            Energy/Eh            Energy/eV
      -------------------------------------------------------------
         1        2.0000           -0.7040152             -19.1572
       ...           ...                  ...                  ...
         3        2.0000           -0.6451080             -17.5543
         4        2.0000           -0.6059958             -16.4900
         5        2.0000           -0.5855007             -15.9323
         6        2.0000           -0.5653175             -15.3831
         7        2.0000           -0.5515918             -15.0096
         8        2.0000           -0.5433109             -14.7842
         9        2.0000           -0.5162122             -14.0468
        10        2.0000           -0.5034839             -13.7005
        11        2.0000           -0.4871977             -13.2573
        12        2.0000           -0.4769127             -12.9775
        13        2.0000           -0.4271439             -11.6232
        14        2.0000           -0.3987388             -10.8502
        15        2.0000           -0.3811704             -10.3722 (HOMO)
        16                         -0.2188684              -5.9557 (LUMO)
        17                          0.0168735               0.4592
        18                          0.0546530               1.4872
        19                          0.0957083               2.6044
        20                          0.1206630               3.2834
        21                          0.1590694               4.3285
        22                          0.1896600               5.1609
        23                          0.2175498               5.9198
        24                          0.2367112               6.4412
        25                          0.3530289               9.6064
        26                          0.6413689              17.4525
      -------------------------------------------------------------
                  HL-Gap            0.1623020 Eh            4.4165 eV

     #   Z          covCN         q      C6AA      α(0)
     1   7 N        2.638    -0.271    27.013     7.719
     2   6 C        2.745     0.284    22.191     7.713
     3   6 C        3.734    -0.011    20.867     6.519
     4   7 N        2.630    -0.341    28.790     7.969
     5   8 O        0.858    -0.419    22.060     6.297
     6   1 H        0.923     0.038     2.472     2.459
     7   1 H        0.924     0.045     2.385     2.415
     8   1 H        0.860     0.193     1.143     1.675
     9   1 H        0.860     0.191     1.154     1.683
    10   1 H        0.860     0.146     1.429     1.872
    11   1 H        0.860     0.146     1.431     1.874

Wiberg/Mayer (AO) data.
largest (>0.10) Wiberg bond orders for each atom

     #   Z sym  total        # sym  WBO       # sym  WBO       # sym  WBO
 ---------------------------------------------------------------------------
     1   7 N    3.359 --     2 C    1.247     9 H    0.944     8 H    0.942
                             5 O    0.198
     2   6 C    3.947 --     5 O    1.723     1 N    1.247     3 C    0.953
     3   6 C    3.987 --     4 N    1.013     7 H    0.970     6 H    0.967
                             2 C    0.953
     4   7 N    2.993 --     3 C    1.013    10 H    0.965    11 H    0.965
     5   8 O    2.021 --     2 C    1.723     1 N    0.198
     6   1 H    0.999 --     3 C    0.967
     7   1 H    0.998 --     3 C    0.970
     8   1 H    0.963 --     1 N    0.942
     9   1 H    0.964 --     1 N    0.944
    10   1 H    0.979 --     4 N    0.965
    11   1 H    0.979 --     4 N    0.965
 ---------------------------------------------------------------------------

molecular dipole:
                 x           y           z       tot (Debye)
 q only:       -0.330       0.476       1.046
   full:       -0.156       0.495       1.025       2.921

           -------------------------------------------------
          | TOTAL ENERGY              -17.232858614625 Eh   |
          | GRADIENT NORM               0.000365219579 Eh/α |
          | HOMO-LUMO GAP               4.416461789430 eV   |
           -------------------------------------------------

 * finished run on 2023/11/18 at 08:08:11.903
