                               Psi4 1.6 release

  ==> Input File <==

--------------------------------------------------------------------------
molecule {
0 1
 N   -1.291772    0.210890   -0.021666
 C   -0.517243   -0.900037    0.085003
 C    0.935812   -0.690544    0.503209
 N    1.173824    0.457800    1.365275
 O   -0.978829   -2.009067   -0.055011
 H    1.519641   -0.669733   -0.433403
 H    1.205771   -1.591806    1.060283
 H   -2.225844    0.067939   -0.373615
 H   -0.895041    1.122107   -0.172670
 H    2.157565    0.706258    1.331881
 H    0.671517    1.277897    1.041095
}
memory 20GB
set_num_threads(5)
psi4_io.set_default_path("/scratch/liuchw/Psi4-25_27_Index_0-farH_in17")
set freeze_core True
E, wfn = energy('wb97x-d/6-311+G*',return_wfn=True)
oeprop(wfn,"WIBERG_LOWDIN_INDICES")
clean()
--------------------------------------------------------------------------

    Molecular point group: c1

    Geometry (in Angstrom), charge = 0, multiplicity = 1:

       Center              X                  Y                   Z               Mass
    ------------   -----------------  -----------------  -----------------  -----------------
         N           -1.158987332171     0.763751669130    -0.392588503351    14.003074004430
         C           -0.384458332171    -0.347175330870    -0.285919503351    12.000000000000
         C            1.068596667829    -0.137682330870     0.132286496649    12.000000000000
         N            1.306608667829     1.010661669130     0.994352496649    14.003074004430
         O           -0.846044332171    -1.456205330870    -0.425933503351    15.994914619570
         H            1.652425667829    -0.116871330870    -0.804325503351     1.007825032230
         H            1.338555667829    -1.038944330870     0.689360496649     1.007825032230
         H           -2.093059332171     0.620800669130    -0.744537503351     1.007825032230
         H           -0.762256332171     1.674968669130    -0.543592503351     1.007825032230
         H            2.290349667829     1.259119669130     0.960958496649     1.007825032230
         H            0.804301667829     1.830758669130     0.670172496649     1.007825032230

  Charge       = 0
  Multiplicity = 1
  Basis Set: 6-311+G*
    Blend: 6-311+G*
  Basis Set: (6-311+G* AUX)
    Blend: HEAVY-AUG-CC-PVTZ-JKFIT

    Orbital Energies [Eh]
    ---------------------

    Doubly Occupied:

       1A    -19.216826     2A    -14.463881     3A    -14.431829
       4A    -10.396674     5A    -10.324160     6A     -1.154403
       7A     -1.028276     8A     -0.998766     9A     -0.809968
      10A     -0.695007    11A     -0.656196    12A     -0.582921
      13A     -0.576609    14A     -0.556824    15A     -0.507148
      16A     -0.486696    17A     -0.477338    18A     -0.370020
      19A     -0.350759    20A     -0.337557

  @DF-RKS Final Energy:  -264.53898106551645

   => Energetics <=

    Nuclear Repulsion Energy =            180.2904246475336549
    One-Electron Energy =                -716.1381877962160161
    Two-Electron Energy =                 295.8730164628923944
    DFT Exchange-Correlation Energy =     -24.5604744130314749
    Empirical Dispersion Energy =          -0.0037599666949769
    VV10 Nonlocal Energy =                  0.0000000000000000
    Total Energy =                       -264.5389810655164524
 Dipole X            :         -2.4948915            3.0238296            0.5289381
 Dipole Y            :         -2.3145555            3.9531876            1.6386320
 Dipole Z            :         -0.8337168            0.2099823           -0.6237345
 Magnitude           :                                                    1.8313752
*** Psi4 exiting successfully. Buy a developer a beer!
