                               Psi4 1.6 release

  ==> Input File <==

--------------------------------------------------------------------------
molecule {
0 1
 N   -1.356408    0.145380    0.120895
 C   -0.479894   -0.877087   -0.030200
 C    0.918025   -0.695046    0.553790
 N    1.167837    0.575843    1.217318
 O   -0.808359   -1.931911   -0.526272
 H    1.634652   -0.946407   -0.240763
 H    0.965045   -1.475342    1.323092
 H   -2.246876    0.035177   -0.340005
 H   -1.050168    1.089023    0.277176
 H    2.167322    0.709254    1.328276
 H    0.844226    1.352818    0.647072
}
memory 20GB
set_num_threads(5)
psi4_io.set_default_path("/scratch/liuchw/Psi4-25_27_Index_0-farH_in17")
set freeze_core True
E, wfn = energy('wb97x-d/6-311+G*',return_wfn=True)
oeprop(wfn,"WIBERG_LOWDIN_INDICES")
clean()
--------------------------------------------------------------------------

    Molecular point group: c1

    Geometry (in Angstrom), charge = 0, multiplicity = 1:

       Center              X                  Y                   Z               Mass
    ------------   -----------------  -----------------  -----------------  -----------------
         N           -1.248635693175     0.670667601322    -0.144105801512    14.003074004430
         C           -0.372121693175    -0.351799398678    -0.295200801512    12.000000000000
         C            1.025797306825    -0.169758398678     0.288789198488    12.000000000000
         N            1.275609306825     1.101130601322     0.952317198488    14.003074004430
         O           -0.700586693175    -1.406623398678    -0.791272801512    15.994914619570
         H            1.742424306825    -0.421119398678    -0.505763801512     1.007825032230
         H            1.072817306825    -0.950054398678     1.058091198488     1.007825032230
         H           -2.139103693175     0.560464601322    -0.605005801512     1.007825032230
         H           -0.942395693175     1.614310601322     0.012175198488     1.007825032230
         H            2.275094306825     1.234541601322     1.063275198488     1.007825032230
         H            0.951998306825     1.878105601322     0.382071198488     1.007825032230

  Charge       = 0
  Multiplicity = 1
  Basis Set: 6-311+G*
    Blend: 6-311+G*
  Basis Set: (6-311+G* AUX)
    Blend: HEAVY-AUG-CC-PVTZ-JKFIT

    Orbital Energies [Eh]
    ---------------------

    Doubly Occupied:

       1A    -19.213562     2A    -14.461542     3A    -14.434369
       4A    -10.395337     5A    -10.324564     6A     -1.151798
       7A     -1.027745     8A     -0.999420     9A     -0.810619
      10A     -0.692649    11A     -0.656318    12A     -0.585178
      13A     -0.574224    14A     -0.556203    15A     -0.511733
      16A     -0.488696    17A     -0.469090    18A     -0.370019
      19A     -0.346427    20A     -0.341745

  @DF-RKS Final Energy:  -264.54096541578645

   => Energetics <=

    Nuclear Repulsion Energy =            180.3917899359265107
    One-Electron Energy =                -716.3654898187544404
    Two-Electron Energy =                 295.9983196078825927
    DFT Exchange-Correlation Energy =     -24.5618839472568062
    Empirical Dispersion Energy =          -0.0037011935841822
    VV10 Nonlocal Energy =                  0.0000000000000000
    Total Energy =                       -264.5409654157863883
 Dipole X            :         -2.2711141            2.7722476            0.5011335
 Dipole Y            :         -2.1490429            3.6594585            1.5104156
 Dipole Z            :         -1.4174531            1.3108481           -0.1066050
 Magnitude           :                                                    1.5949466
*** Psi4 exiting successfully. Buy a developer a beer!
