                               Psi4 1.6 release

  ==> Input File <==

--------------------------------------------------------------------------
molecule {
0 1
C -0.819055689664 -0.213333199835 -0.05557721147
N 0.385470195729 -0.449872300041 0.66865615513
C 1.539263833596 0.219103421829 0.313535118328
C 2.766298215378 0.009549844494 1.208936809397
C 0.289526074485 -1.205837311119 1.914157369429
O 1.613468809092 0.9419496739 -0.681740428452
C -1.994026225689 0.095043875242 0.63734667668
C -3.20955271178 0.179333004463 -1.450426182868
C -3.185958157823 0.283252207044 -0.060698543074
C -2.032627911962 -0.119978048426 -2.138248151765
C -0.840012650008 -0.325285453172 -1.449664651163
H 1.197123370741 -1.787582612736 2.075515364094
H -0.545598925483 -1.900865028972 1.823805115802
H 0.122606463197 -0.565836389265 2.78852254234
N 3.913403402604 0.812630094461 0.819819588169
H 3.055397741859 -1.048217498709 1.183353732273
H 2.516920027608 0.234421565489 2.25158593341
H -1.976557127159 0.2043613468 1.718400408782
H -4.094893744299 0.522085348273 0.485570490718
H -2.04284506166 -0.205300137277 -3.221805832739
H 0.073281592303 -0.56238130639 -1.982445296329
H 4.071152817302 0.663632136475 -0.176564822231
H -4.137727820838 0.331797366601 -1.994470869511
H 3.644936416093 1.794329203264 0.879631891426
}
memory 20GB
set_num_threads(5)
psi4_io.set_default_path("/scratch/liuchw/Psi4-3_25_Index_0_GrowFragment_3-farH_in17")
set maxiter 500
set freeze_core True
set PROPERTIES_ORIGIN ["COM"]
set cubeprop_tasks ['esp']
set basis aug-cc-pVTZ
E, wfn = properties('mp2',properties=['dipole','GRID_ESP','WIBERG_LOWDIN_INDICES','MULLIKEN_CHARGES'],return_wfn=True)
cubeprop(wfn)
fchk(wfn, "3_25_Index_0_GrowFragment_3-esp.fchk")
clean()
--------------------------------------------------------------------------

    Molecular point group: c1
  Charge       = 0
  Multiplicity = 1
  Basis Set: AUG-CC-PVTZ
    Blend: AUG-CC-PVTZ
  Basis Set: (AUG-CC-PVTZ AUX)
    Blend: AUG-CC-PVTZ-JKFIT

    Orbital Energies [Eh]
    ---------------------

    Doubly Occupied:

       1A    -20.524929     2A    -15.603436     3A    -15.545368
       4A    -11.355891     5A    -11.281559     6A    -11.279814
       7A    -11.273375     8A    -11.240688     9A    -11.239280
      10A    -11.237686    11A    -11.234559    12A    -11.233588
      13A     -1.383407    14A     -1.265355    15A     -1.186300
      16A     -1.146100    17A     -1.022963    18A     -1.019658
      19A     -0.971276    20A     -0.938994    21A     -0.840279
      22A     -0.829032    23A     -0.757741    24A     -0.700038
      25A     -0.695799    26A     -0.684503    27A     -0.667005
      28A     -0.648922    29A     -0.625351    30A     -0.613869
      31A     -0.592123    32A     -0.588730    33A     -0.575963
      34A     -0.560820    35A     -0.555483    36A     -0.521436
      37A     -0.515305    38A     -0.500704    39A     -0.499649
      40A     -0.439725    41A     -0.410498    42A     -0.405301
      43A     -0.339380    44A     -0.319321

  @DF-RHF Final Energy:  -531.74660950192037

   => Energetics <=

    Nuclear Repulsion Energy =            682.2360258515268470
    One-Electron Energy =               -2076.2228714462312382
    Two-Electron Energy =                 862.2402360927840164
    Total Energy =                       -531.7466095019203749
  Basis Set: (AUG-CC-PVTZ AUX)
    Blend: AUG-CC-PVTZ-RI
    Molecular point group: c1

    Geometry (in Angstrom), charge = 0, multiplicity = 1:

       Center              X                  Y                   Z               Mass
    ------------   -----------------  -----------------  -----------------  -----------------
         C           -0.807291372478    -0.243014807611    -0.072932515886    12.000000000000
         N            0.397234512915    -0.479553907817     0.651300850714    14.003074004430
         C            1.551028150782     0.189421814053     0.296179813912    12.000000000000
         C            2.778062532564    -0.020131763282     1.191581504981    12.000000000000
         C            0.301290391671    -1.235518918895     1.896802065013    12.000000000000
         O            1.625233126278     0.912268066124    -0.699095732868    15.994914619570
         C           -1.982261908503     0.065362267466     0.619991372264    12.000000000000
         C           -3.197788394594     0.149651396687    -1.467781487284    12.000000000000
         C           -3.174193840637     0.253570599268    -0.078053847490    12.000000000000
         C           -2.020863594776    -0.149659656202    -2.155603456181    12.000000000000
         C           -0.828248332822    -0.354967060948    -1.467019955579    12.000000000000
         H            1.208887687927    -1.817264220512     2.058160059678     1.007825032230
         H           -0.533834608297    -1.930546636748     1.806449811386     1.007825032230
         H            0.134370780383    -0.595517997041     2.771167237924     1.007825032230
         N            3.925167719790     0.782948486685     0.802464283753    14.003074004430
         H            3.067162059045    -1.077899106485     1.165998427857     1.007825032230
         H            2.528684344794     0.204739957713     2.234230628994     1.007825032230
         H           -1.964792809973     0.174679739024     1.701045104366     1.007825032230
         H           -4.083129427113     0.492403740497     0.468215186302     1.007825032230
         H           -2.031080744474    -0.234981745053    -3.239161137155     1.007825032230
         H            0.085045909489    -0.592062914166    -1.999800600745     1.007825032230
         H            4.082917134488     0.633950528699    -0.193920126647     1.007825032230
         H           -4.125963503652     0.302115758825    -2.011826173927     1.007825032230
         H            3.656700733279     1.764647595488     0.862276587010     1.007825032230

  Basis Set: AUG-CC-PVTZ
    Blend: AUG-CC-PVTZ
  Basis Set: (AUG-CC-PVTZ AUX)
    Blend: AUG-CC-PVTZ-JKFIT
	 Reference Energy          =    -531.7466095019203749 [Eh]
	 Singles Energy            =      -0.0000000000000000 [Eh]
	 Same-Spin Energy          =      -0.5370593737568359 [Eh]
	 Opposite-Spin Energy      =      -1.6007937808672406 [Eh]
	 Correlation Energy        =      -2.1378531546240764 [Eh]
	 Total Energy              =    -533.8844626565444287 [Eh]

	 ================> DF-SCS-MP2 Energies <==================
	-----------------------------------------------------------
	 SCS Same-Spin Scale       =       0.3333333333333333 [-]
	 SCS Opposite-Spin Scale   =       1.2000000000000000 [-]
	 SCS Same-Spin Energy      =      -0.1790197912522786 [Eh]
	 SCS Opposite-Spin Energy  =      -1.9209525370406886 [Eh]
	 SCS Correlation Energy    =      -2.0999723282929672 [Eh]
	 SCS Total Energy          =    -533.8465818302133812 [Eh]
	-----------------------------------------------------------

 Dipole X            :         -2.6678129            1.8936000           -0.7742129
 Dipole Y            :          1.7992845           -2.5049180           -0.7056335
 Dipole Z            :         -4.5308614            5.2636546            0.7327932
 Magnitude           :                                                    1.2784013

  Mulliken Charges: (a.u.)
   Center  Symbol    Alpha    Beta     Spin     Total
       1     C     2.39291  2.39291  0.00000  1.21419
       2     N     3.33260  3.33260  0.00000  0.33479
       3     C     3.01876  3.01876  0.00000 -0.03752
       4     C     3.00823  3.00823  0.00000 -0.01646
       5     C     3.54030  3.54030  0.00000 -1.08061
       6     O     4.38148  4.38148  0.00000 -0.76297
       7     C     3.29515  3.29515  0.00000 -0.59030
       8     C     3.15259  3.15259  0.00000 -0.30518
       9     C     3.35118  3.35118  0.00000 -0.70237
      10     C     3.34174  3.34174  0.00000 -0.68348
      11     C     3.34668  3.34668  0.00000 -0.69336
      12     H     0.32905  0.32905  0.00000  0.34190
      13     H     0.34081  0.34081  0.00000  0.31838
      14     H     0.30267  0.30267  0.00000  0.39466
      15     N     3.84861  3.84861  0.00000 -0.69722
      16     H     0.34811  0.34811  0.00000  0.30378
      17     H     0.36683  0.36683  0.00000  0.26634
      18     H     0.32159  0.32159  0.00000  0.35682
      19     H     0.28224  0.28224  0.00000  0.43552
      20     H     0.30866  0.30866  0.00000  0.38267
      21     H     0.26150  0.26150  0.00000  0.47701
      22     H     0.42953  0.42953  0.00000  0.14095
      23     H     0.27058  0.27058  0.00000  0.45884
      24     H     0.42820  0.42820  0.00000  0.14361

   Total alpha = 44.00000, Total beta = 44.00000, Total charge =  0.00000

  Basis Set: AUG-CC-PVTZ
    Blend: AUG-CC-PVTZ
*** Psi4 exiting successfully. Buy a developer a beer!
