                               Psi4 1.6 release

  ==> Input File <==

--------------------------------------------------------------------------
molecule {
0 1
C -0.819055689664 -0.213333199835 -0.05557721147
N 0.385470195729 -0.449872300041 0.66865615513
C 1.539263833596 0.219103421829 0.313535118328
C 2.766298215378 0.009549844494 1.208936809397
C 0.289526074485 -1.205837311119 1.914157369429
O 1.613468809092 0.9419496739 -0.681740428452
C -1.994026225689 0.095043875242 0.63734667668
C -3.20955271178 0.179333004463 -1.450426182868
C -3.185958157823 0.283252207044 -0.060698543074
C -2.032627911962 -0.119978048426 -2.138248151765
C -0.840012650008 -0.325285453172 -1.449664651163
H 1.197123370741 -1.787582612736 2.075515364094
H -0.545598925483 -1.900865028972 1.823805115802
H 0.122606463197 -0.565836389265 2.78852254234
N 3.913403402604 0.812630094461 0.819819588169
H 3.055397741859 -1.048217498709 1.183353732273
H 2.516920027608 0.234421565489 2.25158593341
H -1.976557127159 0.2043613468 1.718400408782
H -4.094893744299 0.522085348273 0.485570490718
H -2.04284506166 -0.205300137277 -3.221805832739
H 0.073281592303 -0.56238130639 -1.982445296329
H 4.071152817302 0.663632136475 -0.176564822231
H -4.137727820838 0.331797366601 -1.994470869511
H 3.644936416093 1.794329203264 0.879631891426
no_reorient
}
memory 20GB
set_num_threads(5)
psi4_io.set_default_path("/scratch/liuchw/Psi4-3_25_Index_0_GrowFragment_3-farH_in17")
set freeze_core True
set PROPERTIES_ORIGIN ["COM"]
set cubeprop_tasks ['esp']
set basis 6-311G**
E, wfn = properties('mp2',properties=['dipole'],return_wfn=True)
cubeprop(wfn)
fchk(wfn, "3_25_Index_0_GrowFragment_3-dma.fchk")
clean()
--------------------------------------------------------------------------

    Molecular point group: c1
  Charge       = 0
  Multiplicity = 1
  Basis Set: 6-311G**
    Blend: 6-311G**
  Basis Set: (6-311G** AUX)
    Blend: CC-PVTZ-JKFIT

    Orbital Energies [Eh]
    ---------------------

    Doubly Occupied:

       1A    -20.518116     2A    -15.598800     3A    -15.537649
       4A    -11.354489     5A    -11.280342     6A    -11.279432
       7A    -11.271496     8A    -11.239040     9A    -11.237661
      10A    -11.235945    11A    -11.233017    12A    -11.231884
      13A     -1.381832    14A     -1.263791    15A     -1.183354
      16A     -1.144988    17A     -1.021992    18A     -1.018585
      19A     -0.970326    20A     -0.937647    21A     -0.839083
      22A     -0.827764    23A     -0.756438    24A     -0.698788
      25A     -0.693912    26A     -0.682242    27A     -0.665527
      28A     -0.647012    29A     -0.623949    30A     -0.612520
      31A     -0.590335    32A     -0.587808    33A     -0.574591
      34A     -0.559121    35A     -0.553259    36A     -0.519233
      37A     -0.513828    38A     -0.498632    39A     -0.497632
      40A     -0.435929    41A     -0.407318    42A     -0.401668
      43A     -0.337409    44A     -0.316861

  @DF-RHF Final Energy:  -531.68248209369960

   => Energetics <=

    Nuclear Repulsion Energy =            682.2360258515268470
    One-Electron Energy =               -2076.2745264405034504
    Two-Electron Energy =                 862.3560184952769987
    Total Energy =                       -531.6824820936996048
  Basis Set: (6-311G** AUX)
    Blend: CC-PVTZ-RI
    Molecular point group: c1

    Geometry (in Angstrom), charge = 0, multiplicity = 1:

       Center              X                  Y                   Z               Mass
    ------------   -----------------  -----------------  -----------------  -----------------
         C           -0.807291372478    -0.243014807611    -0.072932515886    12.000000000000
         N            0.397234512915    -0.479553907817     0.651300850714    14.003074004430
         C            1.551028150782     0.189421814053     0.296179813912    12.000000000000
         C            2.778062532564    -0.020131763282     1.191581504981    12.000000000000
         C            0.301290391671    -1.235518918895     1.896802065013    12.000000000000
         O            1.625233126278     0.912268066124    -0.699095732868    15.994914619570
         C           -1.982261908503     0.065362267466     0.619991372264    12.000000000000
         C           -3.197788394594     0.149651396687    -1.467781487284    12.000000000000
         C           -3.174193840637     0.253570599268    -0.078053847490    12.000000000000
         C           -2.020863594776    -0.149659656202    -2.155603456181    12.000000000000
         C           -0.828248332822    -0.354967060948    -1.467019955579    12.000000000000
         H            1.208887687927    -1.817264220512     2.058160059678     1.007825032230
         H           -0.533834608297    -1.930546636748     1.806449811386     1.007825032230
         H            0.134370780383    -0.595517997041     2.771167237924     1.007825032230
         N            3.925167719790     0.782948486685     0.802464283753    14.003074004430
         H            3.067162059045    -1.077899106485     1.165998427857     1.007825032230
         H            2.528684344794     0.204739957713     2.234230628994     1.007825032230
         H           -1.964792809973     0.174679739024     1.701045104366     1.007825032230
         H           -4.083129427113     0.492403740497     0.468215186302     1.007825032230
         H           -2.031080744474    -0.234981745053    -3.239161137155     1.007825032230
         H            0.085045909489    -0.592062914166    -1.999800600745     1.007825032230
         H            4.082917134488     0.633950528699    -0.193920126647     1.007825032230
         H           -4.125963503652     0.302115758825    -2.011826173927     1.007825032230
         H            3.656700733279     1.764647595488     0.862276587010     1.007825032230

  Basis Set: 6-311G**
    Blend: 6-311G**
  Basis Set: (6-311G** AUX)
    Blend: CC-PVTZ-JKFIT
	 Reference Energy          =    -531.6824820936996048 [Eh]
	 Singles Energy            =      -0.0000000000000000 [Eh]
	 Same-Spin Energy          =      -0.4736124523690705 [Eh]
	 Opposite-Spin Energy      =      -1.3377519528137809 [Eh]
	 Correlation Energy        =      -1.8113644051828515 [Eh]
	 Total Energy              =    -533.4938464988824762 [Eh]

	 ================> DF-SCS-MP2 Energies <==================
	-----------------------------------------------------------
	 SCS Same-Spin Scale       =       0.3333333333333333 [-]
	 SCS Opposite-Spin Scale   =       1.2000000000000000 [-]
	 SCS Same-Spin Energy      =      -0.1578708174563568 [Eh]
	 SCS Opposite-Spin Energy  =      -1.6053023433765370 [Eh]
	 SCS Correlation Energy    =      -1.7631731608328938 [Eh]
	 SCS Total Energy          =    -533.4456552545325394 [Eh]
	-----------------------------------------------------------

 Dipole X            :         -2.6293133            1.8936000           -0.7357133
 Dipole Y            :          1.8423637           -2.5049180           -0.6625542
 Dipole Z            :         -4.5837660            5.2636546            0.6798885
 Magnitude           :                                                    1.2010414
  Basis Set: 6-311G**
    Blend: 6-311G**
*** Psi4 exiting successfully. Buy a developer a beer!
