                               Psi4 1.6 release

  ==> Input File <==

--------------------------------------------------------------------------
molecule {
0 1
C         -6.08150        0.53520       -0.22350
C         -7.16190        1.21630        0.37150
C         -8.42780        0.45910        0.58570
O         -9.38670        1.26690        1.10250
C         -7.02720        2.56920        0.75100
O         -8.55770       -0.72530        0.32190
C         -4.88910        1.21140       -0.43690
N         -3.52250        3.04850       -0.30400
C         -3.56930        0.84960       -1.00940
C         -2.71040        2.09760       -0.89730
C         -4.78720        2.54830       -0.03700
H         -6.20520       -0.50650       -0.49970
C         -5.82480        3.24840        0.54820
H         -7.85720        3.10110        1.21180
C        -10.63610        0.61180        1.32950
H         -3.20520        3.98790       -0.12020
C         -3.13200       -0.30890       -1.55600
O         -1.56570        2.29350       -1.25750
H         -5.71760        4.28610        0.84440
H        -10.51740       -0.19870        2.05550
H        -11.33340        1.34640        1.74150
H        -11.04720        0.23360        0.38820
H         -3.76070       -1.12580       -1.60550
H         -2.16980       -0.37530       -1.92320
}
memory 208GB
set_num_threads(51)
psi4_io.set_default_path("/scratch/liuchw/Psi4-farH_in17")
set maxiter 500
set freeze_core True
set PROPERTIES_ORIGIN ["COM"]
set cubeprop_tasks ['esp']
set basis MINIX
E, wfn = properties('hf',properties=['dipole','WIBERG_LOWDIN_INDICES','MULLIKEN_CHARGES'],return_wfn=True)
cubeprop(wfn)
fchk(wfn, "farH_in17-esp_frag.fchk")
clean()
--------------------------------------------------------------------------

    Molecular point group: c1

    Geometry (in Angstrom), charge = 0, multiplicity = 1:

       Center              X                  Y                   Z               Mass
    ------------   -----------------  -----------------  -----------------  -----------------
         C           -0.198196827751    -0.840387904777    -0.192136550179    12.000000000000
         C           -1.278596827751    -0.159287904777     0.402863449821    12.000000000000
         C           -2.544496827751    -0.916487904777     0.617063449821    12.000000000000
         O           -3.503396827751    -0.108687904777     1.133863449821    15.994914619570
         C           -1.143896827751     1.193612095223     0.782363449821    12.000000000000
         O           -2.674396827751    -2.100887904777     0.353263449821    15.994914619570
         C            0.994203172249    -0.164187904777    -0.405536550179    12.000000000000
         N            2.360803172249     1.672912095223    -0.272636550179    14.003074004430
         C            2.314003172249    -0.525987904777    -0.978036550179    12.000000000000
         C            3.172903172249     0.722012095223    -0.865936550179    12.000000000000
         C            1.096103172249     1.172712095223    -0.005636550179    12.000000000000
         H           -0.321896827751    -1.882087904777    -0.468336550179     1.007825032230
         C            0.058503172249     1.872812095223     0.579563449821    12.000000000000
         H           -1.973896827751     1.725512095223     1.243163449821     1.007825032230
         C           -4.752796827751    -0.763787904777     1.360863449821    12.000000000000
         H            2.678103172249     2.612312095223    -0.088836550179     1.007825032230
         C            2.751303172249    -1.684487904777    -1.524636550179    12.000000000000
         O            4.317603172249     0.917912095223    -1.226136550179    15.994914619570
         H            0.165703172249     2.910512095223     0.875763449821     1.007825032230
         H           -4.634096827751    -1.574287904777     2.086863449821     1.007825032230
         H           -5.450096827751    -0.029187904777     1.772863449821     1.007825032230
         H           -5.163896827751    -1.141987904777     0.419563449821     1.007825032230
         H            2.122603172249    -2.501387904777    -1.574136550179     1.007825032230
         H            3.713503172249    -1.750887904777    -1.891836550179     1.007825032230

  Charge       = 0
  Multiplicity = 1
  Basis Set: MINIX
    Blend: MINIX
  Basis Set: (MINIX AUX)
    Blend: DEF2-UNIVERSAL-JKFIT

    Orbital Energies [Eh]
    ---------------------

    Doubly Occupied:

       1A    -20.380747     2A    -20.330952     3A    -20.330059
       4A    -15.473901     5A    -11.364049     6A    -11.345184
       7A    -11.269028     8A    -11.239853     9A    -11.216247
      10A    -11.214822    11A    -11.211500    12A    -11.207321
      13A    -11.202029    14A    -11.201939    15A    -11.193520
      16A     -1.458727    17A     -1.406325    18A     -1.354323
      19A     -1.294321    20A     -1.171388    21A     -1.108290
      22A     -1.050226    23A     -1.030406    24A     -0.972763
      25A     -0.931799    26A     -0.873307    27A     -0.829736
      28A     -0.787409    29A     -0.764539    30A     -0.738791
      31A     -0.718403    32A     -0.678533    33A     -0.676503
      34A     -0.660756    35A     -0.641529    36A     -0.633601
      37A     -0.618856    38A     -0.617671    39A     -0.599905
      40A     -0.595238    41A     -0.570228    42A     -0.560158
      43A     -0.557393    44A     -0.528220    45A     -0.512177
      46A     -0.495297    47A     -0.463911    48A     -0.438597
      49A     -0.431174    50A     -0.425665    51A     -0.413794
      52A     -0.355231    53A     -0.312834

  @DF-RHF Final Energy:  -695.99038924318052

   => Energetics <=

    Nuclear Repulsion Energy =            914.1255715862278066
    One-Electron Energy =               -2763.3135758968373921
    Two-Electron Energy =                1153.1976150674290693
    Total Energy =                       -695.9903892431805161
 Dipole X            :          7.3793230           -8.3254979           -0.9461748
 Dipole Y            :          2.1403693           -1.5405386            0.5998307
 Dipole Z            :         -1.7392449            2.2286025            0.4893577
 Magnitude           :                                                    1.2225034

  Mulliken Charges: (a.u.)
   Center  Symbol    Alpha    Beta     Spin     Total
       1     C     3.04590  3.04590  0.00000 -0.09181
       2     C     3.03158  3.03158  0.00000 -0.06316
       3     C     2.75825  2.75825  0.00000  0.48350
       4     O     4.21350  4.21350  0.00000 -0.42701
       5     C     3.04614  3.04614  0.00000 -0.09228
       6     O     4.20834  4.20834  0.00000 -0.41669
       7     C     3.02600  3.02600  0.00000 -0.05199
       8     N     3.70583  3.70583  0.00000 -0.41166
       9     C     3.01758  3.01758  0.00000 -0.03516
      10     C     2.79885  2.79885  0.00000  0.40231
      11     C     2.93322  2.93322  0.00000  0.13355
      12     H     0.41498  0.41498  0.00000  0.17004
      13     C     3.08416  3.08416  0.00000 -0.16832
      14     H     0.41586  0.41586  0.00000  0.16828
      15     C     3.08359  3.08359  0.00000 -0.16718
      16     H     0.35604  0.35604  0.00000  0.28793
      17     C     3.11340  3.11340  0.00000 -0.22679
      18     O     4.20188  4.20188  0.00000 -0.40376
      19     H     0.42638  0.42638  0.00000  0.14723
      20     H     0.42554  0.42554  0.00000  0.14892
      21     H     0.42547  0.42547  0.00000  0.14907
      22     H     0.42553  0.42553  0.00000  0.14893
      23     H     0.42381  0.42381  0.00000  0.15238
      24     H     0.41816  0.41816  0.00000  0.16368

   Total alpha = 53.00000, Total beta = 53.00000, Total charge =  0.00000

  Basis Set: MINIX
    Blend: MINIX
*** Psi4 exiting successfully. Buy a developer a beer!
