                               Psi4 1.6 release

  ==> Input File <==

--------------------------------------------------------------------------
molecule {
0 1
C          1.74620       -1.05080        0.18250
N          2.96770       -1.22590        0.93830
C          4.20790       -0.75070        0.46350
C          5.41700       -0.91200        1.42550
C          2.83610       -1.83070        2.26690
O          4.37860       -0.19540       -0.62670
C          0.49640       -1.04020        0.82360
C         -0.69030       -0.69330       -1.27690
C         -0.69900       -0.87610        0.10610
C          0.54570       -0.74670       -1.92620
C          1.74110       -0.91260       -1.20990
H          3.76190       -2.31380        2.58500
H          2.07280       -2.61550        2.26200
H          2.58270       -1.04830        2.98880
N          6.60930       -0.19800        0.91940
H          5.63850       -1.98490        1.46880
H          5.16110       -0.54490        2.42510
H          0.40570       -1.13160        1.90150
H         -1.63560       -0.88150        0.65530
H          0.59670       -0.66530       -3.00930
H          2.65370       -0.96970       -1.79450
N         -1.86950       -0.60480       -2.05600
C          6.49030        1.26440        0.98430
C          7.86250       -0.64920        1.54090
H         -1.68130       -0.10010       -2.92110
H          6.57290        1.59800        2.02760
H          5.51790        1.62350        0.63090
H          8.11140       -1.63500        1.12980
H          7.74260       -0.77830        2.62420
H         -2.74410       -0.97680       -1.79920
H          7.27020        1.65250        0.36300
H          8.61940        0.08150        1.34590
}
memory 208GB
set_num_threads(51)
psi4_io.set_default_path("/scratch/liuchw/Psi4-farH_in17")
set maxiter 500
set freeze_core True
set PROPERTIES_ORIGIN ["COM"]
set cubeprop_tasks ['esp']
set basis MINIX
E, wfn = properties('hf',properties=['dipole','WIBERG_LOWDIN_INDICES','MULLIKEN_CHARGES'],return_wfn=True)
cubeprop(wfn)
fchk(wfn, "farH_in17-esp_frag.fchk")
clean()
--------------------------------------------------------------------------

    Molecular point group: c1

    Geometry (in Angstrom), charge = 0, multiplicity = 1:

       Center              X                  Y                   Z               Mass
    ------------   -----------------  -----------------  -----------------  -----------------
         C           -1.143343723386    -0.371626392387    -0.014216963552    12.000000000000
         N            0.078156276614    -0.546726392387     0.741583036448    14.003074004430
         C            1.318356276614    -0.071526392387     0.266783036448    12.000000000000
         C            2.527456276614    -0.232826392387     1.228783036448    12.000000000000
         C           -0.053443723386    -1.151526392387     2.070183036448    12.000000000000
         O            1.489056276614     0.483773607613    -0.823416963552    15.994914619570
         C           -2.393143723386    -0.361026392387     0.626883036448    12.000000000000
         C           -3.579843723386    -0.014126392387    -1.473616963552    12.000000000000
         C           -3.588543723386    -0.196926392387    -0.090616963552    12.000000000000
         C           -2.343843723386    -0.067526392387    -2.122916963552    12.000000000000
         C           -1.148443723386    -0.233426392387    -1.406616963552    12.000000000000
         H            0.872356276614    -1.634626392387     2.388283036448     1.007825032230
         H           -0.816743723386    -1.936326392387     2.065283036448     1.007825032230
         H           -0.306843723386    -0.369126392387     2.792083036448     1.007825032230
         N            3.719756276614     0.481173607613     0.722683036448    14.003074004430
         H            2.748956276614    -1.305726392387     1.272083036448     1.007825032230
         H            2.271556276614     0.134273607613     2.228383036448     1.007825032230
         H           -2.483843723386    -0.452426392387     1.704783036448     1.007825032230
         H           -4.525143723386    -0.202326392387     0.458583036448     1.007825032230
         H           -2.292843723386     0.013873607613    -3.206016963552     1.007825032230
         H           -0.235843723386    -0.290526392387    -1.991216963552     1.007825032230
         N           -4.759043723386     0.074373607613    -2.252716963552    14.003074004430
         C            3.600756276614     1.943573607613     0.787583036448    12.000000000000
         C            4.972956276614     0.029973607613     1.344183036448    12.000000000000
         H           -4.570843723386     0.579073607613    -3.117816963552     1.007825032230
         H            3.683356276614     2.277173607613     1.830883036448     1.007825032230
         H            2.628356276614     2.302673607613     0.434183036448     1.007825032230
         H            5.221856276614    -0.955826392387     0.933083036448     1.007825032230
         H            4.853056276614    -0.099126392387     2.427483036448     1.007825032230
         H           -5.633643723386    -0.297626392387    -1.995916963552     1.007825032230
         H            4.380656276614     2.331673607613     0.166283036448     1.007825032230
         H            5.729856276614     0.760673607613     1.149183036448     1.007825032230

  Charge       = 0
  Multiplicity = 1
  Basis Set: MINIX
    Blend: MINIX
  Basis Set: (MINIX AUX)
    Blend: DEF2-UNIVERSAL-JKFIT

    Orbital Energies [Eh]
    ---------------------

    Doubly Occupied:

       1A    -20.289186     2A    -15.442454     3A    -15.375279
       4A    -15.372560     5A    -11.310595     6A    -11.220070
       7A    -11.215007     8A    -11.212010     9A    -11.204462
      10A    -11.177455    11A    -11.167531    12A    -11.165623
      13A    -11.161579    14A    -11.156401    15A    -11.153317
      16A     -1.364291    17A     -1.234740    18A     -1.208746
      19A     -1.189890    20A     -1.110416    21A     -1.007566
      22A     -1.001851    23A     -0.975408    24A     -0.946541
      25A     -0.939244    26A     -0.838874    27A     -0.824500
      28A     -0.793662    29A     -0.738161    30A     -0.695473
      31A     -0.679370    32A     -0.665235    33A     -0.656042
      34A     -0.647488    35A     -0.630191    36A     -0.628635
      37A     -0.606498    38A     -0.598216    39A     -0.584045
      40A     -0.569636    41A     -0.556329    42A     -0.549949
      43A     -0.546086    44A     -0.534083    45A     -0.530444
      46A     -0.512754    47A     -0.506726    48A     -0.495672
      49A     -0.492122    50A     -0.475793    51A     -0.437019
      52A     -0.382364    53A     -0.368675    54A     -0.338032
      55A     -0.329553    56A     -0.270230

  @DF-RHF Final Energy:  -660.07203392068880

   => Energetics <=

    Nuclear Repulsion Energy =            977.0544482377242730
    One-Electron Energy =               -2838.0849136757028646
    Two-Electron Energy =                1200.9584315172896822
    Total Energy =                       -660.0720339206889093
 Dipole X            :        -11.3740370           10.8135854           -0.5604515
 Dipole Y            :         -1.2597614            0.8045397           -0.4552217
 Dipole Z            :         -7.6396527            8.9414283            1.3017756
 Magnitude           :                                                    1.4886075

  Mulliken Charges: (a.u.)
   Center  Symbol    Alpha    Beta     Spin     Total
       1     C     2.95969  2.95969  0.00000  0.08063
       2     N     3.66079  3.66079  0.00000 -0.32159
       3     C     2.80359  2.80359  0.00000  0.39282
       4     C     3.07399  3.07399  0.00000 -0.14798
       5     C     3.12300  3.12300  0.00000 -0.24601
       6     O     4.20505  4.20505  0.00000 -0.41010
       7     C     3.07181  3.07181  0.00000 -0.14362
       8     C     2.95215  2.95215  0.00000  0.09571
       9     C     3.07948  3.07948  0.00000 -0.15895
      10     C     3.07732  3.07732  0.00000 -0.15465
      11     C     3.06543  3.06543  0.00000 -0.13087
      12     H     0.43090  0.43090  0.00000  0.13821
      13     H     0.42677  0.42677  0.00000  0.14646
      14     H     0.43392  0.43392  0.00000  0.13217
      15     N     3.65287  3.65287  0.00000 -0.30574
      16     H     0.42974  0.42974  0.00000  0.14052
      17     H     0.43844  0.43844  0.00000  0.12312
      18     H     0.43327  0.43327  0.00000  0.13346
      19     H     0.43399  0.43399  0.00000  0.13201
      20     H     0.43381  0.43381  0.00000  0.13239
      21     H     0.41541  0.41541  0.00000  0.16918
      22     N     3.75927  3.75927  0.00000 -0.51854
      23     C     3.12937  3.12937  0.00000 -0.25874
      24     C     3.12947  3.12947  0.00000 -0.25894
      25     H     0.38056  0.38056  0.00000  0.23888
      26     H     0.44750  0.44750  0.00000  0.10500
      27     H     0.42924  0.42924  0.00000  0.14152
      28     H     0.43539  0.43539  0.00000  0.12923
      29     H     0.44502  0.44502  0.00000  0.10996
      30     H     0.37619  0.37619  0.00000  0.24762
      31     H     0.43343  0.43343  0.00000  0.13315
      32     H     0.43316  0.43316  0.00000  0.13368

   Total alpha = 56.00000, Total beta = 56.00000, Total charge =  0.00000

  Basis Set: MINIX
    Blend: MINIX
*** Psi4 exiting successfully. Buy a developer a beer!
