                               Psi4 1.6 release

  ==> Input File <==

--------------------------------------------------------------------------
molecule {
0 1
 C    0.879053   -0.757362   -0.395085
 C   -0.220481    0.026500   -0.070573
 C   -1.569251   -0.600020    0.060981
 O   -1.812730   -0.991158    1.318309
 C   -0.069765    1.394250    0.117107
 O   -2.359101   -0.749318   -0.831549
 C    2.125530   -0.171186   -0.529435
 C    2.276968    1.192390   -0.341897
 H    0.756491   -1.819959   -0.543024
 C    1.179828    1.973258   -0.019455
 H   -0.928027    2.000264    0.366426
 H    1.295862    3.036877    0.126329
 H   -2.693135   -1.395957    1.385511
 H    2.979796   -0.781570   -0.781739
 H    3.250698    1.647126   -0.448368
}
memory 20GB
set_num_threads(5)
psi4_io.set_default_path("/scratch/liuchw/Psi4-13_34_Index_0-farH_in17")
set freeze_core True
E, wfn = energy('wb97x-d/6-311+G*',return_wfn=True)
oeprop(wfn,"WIBERG_LOWDIN_INDICES")
clean()
--------------------------------------------------------------------------

    Molecular point group: c1

    Geometry (in Angstrom), charge = 0, multiplicity = 1:

       Center              X                  Y                   Z               Mass
    ------------   -----------------  -----------------  -----------------  -----------------
         C            0.934834001830    -0.852112125202    -0.343882061803    12.000000000000
         C           -0.164699998170    -0.068250125202    -0.019370061803    12.000000000000
         C           -1.513469998170    -0.694770125202     0.112183938197    12.000000000000
         O           -1.756948998170    -1.085908125202     1.369511938197    15.994914619570
         C           -0.013983998170     1.299499874798     0.168309938197    12.000000000000
         O           -2.303319998170    -0.844068125202    -0.780346061803    15.994914619570
         C            2.181311001830    -0.265936125202    -0.478232061803    12.000000000000
         C            2.332749001830     1.097639874798    -0.290694061803    12.000000000000
         H            0.812272001830    -1.914709125202    -0.491821061803     1.007825032230
         C            1.235609001830     1.878507874798     0.031747938197    12.000000000000
         H           -0.872245998170     1.905513874798     0.417628938197     1.007825032230
         H            1.351643001830     2.942126874798     0.177531938197     1.007825032230
         H           -2.637353998170    -1.490707125202     1.436713938197     1.007825032230
         H            3.035577001830    -0.876320125202    -0.730536061803     1.007825032230
         H            3.306479001830     1.552375874798    -0.397165061803     1.007825032230

  Charge       = 0
  Multiplicity = 1
  Basis Set: 6-311+G*
    Blend: 6-311+G*
  Basis Set: (6-311+G* AUX)
    Blend: HEAVY-AUG-CC-PVTZ-JKFIT

    Orbital Energies [Eh]
    ---------------------

    Doubly Occupied:

       1A    -19.309142     2A    -19.249046     3A    -10.433290
       4A    -10.315304     5A    -10.304069     6A    -10.304039
       7A    -10.299964     8A    -10.299735     9A    -10.298966
      10A     -1.231760    11A     -1.136932    12A     -0.982377
      13A     -0.883556    14A     -0.866189    15A     -0.775188
      16A     -0.720767    17A     -0.701213    18A     -0.642042
      19A     -0.590280    20A     -0.585750    21A     -0.576698
      22A     -0.544586    23A     -0.530692    24A     -0.523356
      25A     -0.501746    26A     -0.476346    27A     -0.453802
      28A     -0.443867    29A     -0.421965    30A     -0.382149
      31A     -0.346165    32A     -0.341319

  @DF-RKS Final Energy:  -420.77325511721403

   => Energetics <=

    Nuclear Repulsion Energy =            405.6890420545376514
    One-Electron Energy =               -1374.9524399074132361
    Two-Electron Energy =                 588.2397055308571225
    DFT Exchange-Correlation Energy =     -39.7432024857520219
    Empirical Dispersion Energy =          -0.0063603094435372
    VV10 Nonlocal Energy =                  0.0000000000000000
    Total Energy =                       -420.7732551172140916
 Dipole X            :         -4.1899613            4.6644358            0.4744745
 Dipole Y            :         -1.8893066            1.9765496            0.0872429
 Dipole Z            :          0.1569818            0.3893989            0.5463808
 Magnitude           :                                                    0.7288822
*** Psi4 exiting successfully. Buy a developer a beer!
