   * xtb version 6.5.0 (97a52f5) compiled by 'conda@d2599ee0d4f4' on 2022-05-15
          program call               : /home/liuchw/anaconda3/envs/xtbenv/bin/xtb --gfn 2 --chrg 0 --uhf 0 13_34_Index_0-opt-2-3-181_preQMOPTprefit_xyzformat.xyz --opt --input xtb-opt-2-3-181_constr.txt

   ID    Z sym.   atoms
    1    6 C      1-3, 5, 7, 8, 10
    2    8 O      4, 6
    3    1 H      9, 11-15
constraining angle 1 2 3 4 to  181.0047537°, actual value: -178.9952463°
constraining angle 2 3 4 13 to  179.9992518°, actual value:  179.9992518°

          :  Hamiltonian                  GFN2-xTB          :
 * total energy  :   -26.1672359 Eh     change       -0.1070610E-08 Eh
 * total energy  :   -26.1726226 Eh     change       -0.5386628E-02 Eh
 * total energy  :   -26.1729682 Eh     change       -0.3456332E-03 Eh
 * total energy  :   -26.1730154 Eh     change       -0.4718047E-04 Eh
 * total energy  :   -26.1730320 Eh     change       -0.1664093E-04 Eh
 * total energy  :   -26.1730330 Eh     change       -0.9592585E-06 Eh
   *** GEOMETRY OPTIMIZATION CONVERGED AFTER 6 ITERATIONS ***

 final structure:
================
15
 xtb: 6.5.0 (97a52f5)
C            0.91435132968758       -0.75900593083919       -0.55941709499676
C           -0.15336804121327       -0.08048602408828        0.02538578702924
C           -1.42060482367183       -0.81210003975375        0.23605501429704
O           -2.38929341435141       -0.06022665046704        0.78565205093488
C           -0.00942620595018        1.25471099452486        0.39460779508480
O           -1.60101609071899       -1.97065196193166       -0.04820084816705
C            2.11361703180692       -0.10757388891136       -0.77220555194061
C            2.25385022530587        1.22150772205140       -0.40323347311902
H            0.77919666764003       -1.79326588115471       -0.83758069474723
C            1.19407890764172        1.89955678296416        0.17878601515644
H           -0.83967993568599        1.77382822505317        0.84722611007840
H            1.30812521057063        2.93472777938157        0.46465502104259
H           -3.19062103183118       -0.59472990458906        0.89762402380762
H            2.94071718142147       -0.63290356851159       -1.22590072539039
H            3.19180897934864        1.73074536627148       -0.56991340906995

          :  Hamiltonian                  GFN2-xTB          :
         :: total energy             -26.173032981749 Eh    ::
         :: gradient norm              0.000516011812 Eh/a0 ::
         :: HOMO-LUMO gap              3.811820747546 eV    ::
         :: SCC energy               -26.553338215866 Eh    ::
         :: -> dispersion             -0.011754673888 Eh    ::
         :: repulsion energy           0.380291256080 Eh    ::

    * Orbital Energies and Occupations

         #    Occupation            Energy/Eh            Energy/eV
      -------------------------------------------------------------
         1        2.0000           -0.7425256             -20.2052
       ...           ...                  ...                  ...
        11        2.0000           -0.5625968             -15.3090
        12        2.0000           -0.5304536             -14.4344
        13        2.0000           -0.5092679             -13.8579
        14        2.0000           -0.5037084             -13.7066
        15        2.0000           -0.4927143             -13.4074
        16        2.0000           -0.4920360             -13.3890
        17        2.0000           -0.4879407             -13.2775
        18        2.0000           -0.4740794             -12.9004
        19        2.0000           -0.4506169             -12.2619
        20        2.0000           -0.4343932             -11.8204
        21        2.0000           -0.4215500             -11.4710
        22        2.0000           -0.4197196             -11.4212
        23        2.0000           -0.4168650             -11.3435 (HOMO)
        24                         -0.2767832              -7.5317 (LUMO)
        25                         -0.2371341              -6.4527
        26                         -0.1914174              -5.2087
        27                         -0.0940068              -2.5581
        28                          0.0564593               1.5363
        29                          0.1185576               3.2261
        30                          0.1237142               3.3664
        31                          0.1570102               4.2725
        32                          0.1671487               4.5483
        33                          0.1814869               4.9385
        34                          0.1918479               5.2204
       ...                                ...                  ...
        42                          0.6862599              18.6741
      -------------------------------------------------------------
                  HL-Gap            0.1400818 Eh            3.8118 eV

     #   Z          covCN         q      C6AA      α(0)
     1   6 C        2.924    -0.019    28.481     8.752
     2   6 C        2.973    -0.017    28.424     8.745
     3   6 C        2.698     0.354    20.984     7.497
     4   8 O        1.659    -0.382    20.494     6.111
     5   6 C        2.921    -0.020    28.518     8.757
     6   8 O        0.857    -0.418    22.042     6.295
     7   6 C        2.918    -0.025    28.633     8.775
     8   6 C        2.920    -0.020    28.518     8.757
     9   1 H        0.926     0.062     2.175     2.306
    10   6 C        2.919    -0.026    28.661     8.779
    11   1 H        0.926     0.058     2.226     2.333
    12   1 H        0.926     0.041     2.431     2.438
    13   1 H        0.804     0.328     0.643     1.260
    14   1 H        0.926     0.043     2.409     2.427
    15   1 H        0.926     0.042     2.427     2.436

Wiberg/Mayer (AO) data.
largest (>0.10) Wiberg bond orders for each atom

     #   Z sym  total        # sym  WBO       # sym  WBO       # sym  WBO
 ---------------------------------------------------------------------------
     1   6 C    3.989 --     7 C    1.456     2 C    1.384     9 H    0.966
                            10 C    0.107
     2   6 C    3.988 --     5 C    1.387     1 C    1.384     3 C    1.013
                             8 C    0.102
     3   6 C    3.915 --     6 O    1.734     4 O    1.117     2 C    1.013
     4   8 O    2.191 --     3 C    1.117    13 H    0.868     6 O    0.168
     5   6 C    3.990 --    10 C    1.454     2 C    1.387    11 H    0.967
                             7 C    0.108
     6   8 O    2.029 --     3 C    1.734     4 O    0.168
     7   6 C    3.992 --     1 C    1.456     8 C    1.432    14 H    0.970
                             5 C    0.108
     8   6 C    3.992 --    10 C    1.433     7 C    1.432    15 H    0.971
                             2 C    0.102
     9   1 H    0.996 --     1 C    0.966
    10   6 C    3.992 --     5 C    1.454     8 C    1.433    12 H    0.970
                             1 C    0.107
    11   1 H    0.997 --     5 C    0.967
    12   1 H    0.998 --    10 C    0.970
    13   1 H    0.892 --     4 O    0.868
    14   1 H    0.998 --     7 C    0.970
    15   1 H    0.998 --     8 C    0.971
 ---------------------------------------------------------------------------

molecular dipole:
                 x           y           z       tot (Debye)
 q only:        0.377       0.829       0.119
   full:        0.247       0.837       0.166       2.257

           -------------------------------------------------
          | TOTAL ENERGY              -26.173032981749 Eh   |
          | GRADIENT NORM               0.000516011812 Eh/α |
          | HOMO-LUMO GAP               3.811820747546 eV   |
           -------------------------------------------------

 * finished run on 2023/11/18 at 08:13:03.798
