   * xtb version 6.5.0 (97a52f5) compiled by 'conda@d2599ee0d4f4' on 2022-05-15
          program call               : /home/liuchw/anaconda3/envs/xtbenv/bin/xtb --gfn 2 --chrg 0 --uhf 0 13_34_Index_0-opt-2-3-331_preQMOPTprefit_xyzformat.xyz --opt --input xtb-opt-2-3-331_constr.txt

   ID    Z sym.   atoms
    1    6 C      1-3, 5, 7, 8, 10
    2    8 O      4, 6
    3    1 H      9, 11-15
constraining angle 1 2 3 4 to  330.9863718°, actual value:  -29.0136282°
constraining angle 2 3 4 13 to  180.0011064°, actual value: -179.9988936°

          :  Hamiltonian                  GFN2-xTB          :
 * total energy  :   -26.1662483 Eh     change       -0.2596003E-09 Eh
 * total energy  :   -26.1715463 Eh     change       -0.5298016E-02 Eh
 * total energy  :   -26.1719134 Eh     change       -0.3670169E-03 Eh
 * total energy  :   -26.1719745 Eh     change       -0.6110942E-04 Eh
 * total energy  :   -26.1719945 Eh     change       -0.2003816E-04 Eh
 * total energy  :   -26.1719955 Eh     change       -0.1020846E-05 Eh
 * total energy  :   -26.1719960 Eh     change       -0.5041693E-06 Eh
   *** GEOMETRY OPTIMIZATION CONVERGED AFTER 7 ITERATIONS ***

 final structure:
================
15
 xtb: 6.5.0 (97a52f5)
C            0.64805381090511       -0.54933546184691       -0.77056074777695
C           -0.19632736469519        0.05886032020735        0.15371299683832
C           -1.48989107262440       -0.55433834682601        0.52920009960203
O           -2.02339220903640       -1.29690804687255       -0.45467462405491
C            0.19946430093993        1.23171611401415        0.79188584761740
O           -2.04438887525603       -0.39976656658319        1.58802504209049
C            1.86842151810052        0.02832760292198       -1.06832142875287
C            2.25093603004223        1.20678764247461       -0.44743556858249
H            0.34107459443573       -1.46669414863949       -1.24867174260360
C            1.41639277130431        1.80801142234500        0.48190747696253
H           -0.46131794148536        1.67692030357274        1.52016912692071
H            1.71945872618582        2.72309223310591        0.96845157501252
H           -2.86669200618846       -1.67549736358881       -0.16077052387277
H            2.52560482387348       -0.44249250836194       -1.78434970883240
H            3.20433591349871        1.65545181407716       -0.68502183056797

          :  Hamiltonian                  GFN2-xTB          :
         :: total energy             -26.171996032230 Eh    ::
         :: gradient norm              0.000170818886 Eh/a0 ::
         :: HOMO-LUMO gap              3.901927112587 eV    ::
         :: SCC energy               -26.552873211397 Eh    ::
         :: -> dispersion             -0.011769458271 Eh    ::
         :: repulsion energy           0.380859832847 Eh    ::

    * Orbital Energies and Occupations

         #    Occupation            Energy/Eh            Energy/eV
      -------------------------------------------------------------
         1        2.0000           -0.7438752             -20.2419
       ...           ...                  ...                  ...
        11        2.0000           -0.5631139             -15.3231
        12        2.0000           -0.5316621             -14.4673
        13        2.0000           -0.5090409             -13.8517
        14        2.0000           -0.5040191             -13.7151
        15        2.0000           -0.4929702             -13.4144
        16        2.0000           -0.4919188             -13.3858
        17        2.0000           -0.4892318             -13.3127
        18        2.0000           -0.4751197             -12.9287
        19        2.0000           -0.4514708             -12.2851
        20        2.0000           -0.4352417             -11.8435
        21        2.0000           -0.4215308             -11.4704
        22        2.0000           -0.4197807             -11.4228
        23        2.0000           -0.4162725             -11.3274 (HOMO)
        24                         -0.2728793              -7.4254 (LUMO)
        25                         -0.2371844              -6.4541
        26                         -0.1969500              -5.3593
        27                         -0.0985567              -2.6819
        28                          0.0570327               1.5519
        29                          0.1176593               3.2017
        30                          0.1249731               3.4007
        31                          0.1590176               4.3271
        32                          0.1660781               4.5192
        33                          0.1815610               4.9405
        34                          0.1908344               5.1929
       ...                                ...                  ...
        42                          0.6822912              18.5661
      -------------------------------------------------------------
                  HL-Gap            0.1433932 Eh            3.9019 eV

     #   Z          covCN         q      C6AA      α(0)
     1   6 C        2.921    -0.020    28.510     8.756
     2   6 C        2.974    -0.015    28.380     8.738
     3   6 C        2.697     0.356    20.957     7.493
     4   8 O        1.660    -0.380    20.466     6.107
     5   6 C        2.924    -0.019    28.479     8.751
     6   8 O        0.857    -0.415    21.977     6.285
     7   6 C        2.919    -0.026    28.653     8.778
     8   6 C        2.920    -0.021    28.541     8.761
     9   1 H        0.926     0.054     2.276     2.359
    10   6 C        2.919    -0.025    28.628     8.774
    11   1 H        0.926     0.058     2.226     2.333
    12   1 H        0.926     0.043     2.408     2.427
    13   1 H        0.804     0.328     0.643     1.260
    14   1 H        0.926     0.042     2.428     2.437
    15   1 H        0.926     0.042     2.428     2.437

Wiberg/Mayer (AO) data.
largest (>0.10) Wiberg bond orders for each atom

     #   Z sym  total        # sym  WBO       # sym  WBO       # sym  WBO
 ---------------------------------------------------------------------------
     1   6 C    3.990 --     7 C    1.451     2 C    1.391     9 H    0.968
                            10 C    0.108
     2   6 C    3.988 --     1 C    1.391     5 C    1.387     3 C    1.004
                             8 C    0.104
     3   6 C    3.914 --     6 O    1.741     4 O    1.119     2 C    1.004
     4   8 O    2.194 --     3 C    1.119    13 H    0.868     6 O    0.170
     5   6 C    3.989 --    10 C    1.454     2 C    1.387    11 H    0.967
                             7 C    0.109
     6   8 O    2.033 --     3 C    1.741     4 O    0.170
     7   6 C    3.992 --     1 C    1.451     8 C    1.435    14 H    0.970
                             5 C    0.109
     8   6 C    3.992 --     7 C    1.435    10 C    1.433    15 H    0.971
                             2 C    0.104
     9   1 H    0.997 --     1 C    0.968
    10   6 C    3.992 --     5 C    1.454     8 C    1.433    12 H    0.970
                             1 C    0.108
    11   1 H    0.997 --     5 C    0.967
    12   1 H    0.998 --    10 C    0.970
    13   1 H    0.892 --     4 O    0.868
    14   1 H    0.998 --     7 C    0.970
    15   1 H    0.998 --     8 C    0.971
 ---------------------------------------------------------------------------

molecular dipole:
                 x           y           z       tot (Debye)
 q only:        0.576       0.025      -0.693
   full:        0.470      -0.069      -0.727       2.206

           -------------------------------------------------
          | TOTAL ENERGY              -26.171996032230 Eh   |
          | GRADIENT NORM               0.000170818886 Eh/α |
          | HOMO-LUMO GAP               3.901927112587 eV   |
           -------------------------------------------------

 * finished run on 2023/11/18 at 08:14:03.337
