   * xtb version 6.5.0 (97a52f5) compiled by 'conda@d2599ee0d4f4' on 2022-05-15
          program call               : /home/liuchw/anaconda3/envs/xtbenv/bin/xtb --gfn 2 --chrg 0 --uhf 0 13_34_Index_0-opt-2-3-121_preQMOPTprefit_xyzformat.xyz --opt --input xtb-opt-2-3-121_constr.txt

   ID    Z sym.   atoms
    1    6 C      1-3, 5, 7, 8, 10
    2    8 O      4, 6
    3    1 H      9, 11-15
constraining angle 1 2 3 4 to  121.0009493°, actual value:  121.0009493°
constraining angle 2 3 4 13 to  180.0053231°, actual value: -179.9946769°

          :  Hamiltonian                  GFN2-xTB          :
 * total energy  :   -26.1631420 Eh     change       -0.2171099E-09 Eh
 * total energy  :   -26.1682984 Eh     change       -0.5156393E-02 Eh
 * total energy  :   -26.1686455 Eh     change       -0.3471162E-03 Eh
 * total energy  :   -26.1687232 Eh     change       -0.7767953E-04 Eh
 * total energy  :   -26.1687536 Eh     change       -0.3039427E-04 Eh
 * total energy  :   -26.1687573 Eh     change       -0.3753020E-05 Eh
 * total energy  :   -26.1687590 Eh     change       -0.1633703E-05 Eh
   *** GEOMETRY OPTIMIZATION CONVERGED AFTER 7 ITERATIONS ***

 final structure:
================
15
 xtb: 6.5.0 (97a52f5)
C            0.89750334991678       -0.76228199196004       -0.49251379665661
C           -0.20702422657647       -0.01457602984717       -0.10021139249332
C           -1.52170873237745       -0.69077222875935        0.06407818459621
O           -1.99970299604883       -0.55507065052999        1.30948857217899
C           -0.06507818209918        1.33667691009711        0.19293891548255
O           -2.09139766309286       -1.32538778487755       -0.78385409239954
C            2.13334890877138       -0.15258161300218       -0.61126894350124
C            2.27025612352624        1.19902561340455       -0.34023692904171
H            0.77713234948212       -1.81306648702197       -0.70919132024616
C            1.17146531378999        1.94222921232387        0.05880498856310
H           -0.92339953371333        1.90842603820006        0.51220073637560
H            1.27971012395472        2.99506246832060        0.27352474288916
H           -2.85643821351011       -1.00368267173195        1.39255687335504
H            2.99147698437574       -0.73340530462828       -0.91508038512366
H            3.23559241360125        1.67353752001226       -0.43769714397842

          :  Hamiltonian                  GFN2-xTB          :
         :: total energy             -26.168758968267 Eh    ::
         :: gradient norm              0.000426951349 Eh/a0 ::
         :: HOMO-LUMO gap              4.206875459021 eV    ::
         :: SCC energy               -26.550304511929 Eh    ::
         :: -> dispersion             -0.011799095226 Eh    ::
         :: repulsion energy           0.381521728888 Eh    ::

    * Orbital Energies and Occupations

         #    Occupation            Energy/Eh            Energy/eV
      -------------------------------------------------------------
         1        2.0000           -0.7476850             -20.3455
       ...           ...                  ...                  ...
        11        2.0000           -0.5650417             -15.3756
        12        2.0000           -0.5341421             -14.5347
        13        2.0000           -0.5084237             -13.8349
        14        2.0000           -0.5049570             -13.7406
        15        2.0000           -0.4943540             -13.4521
        16        2.0000           -0.4910318             -13.3617
        17        2.0000           -0.4905504             -13.3486
        18        2.0000           -0.4785924             -13.0232
        19        2.0000           -0.4538397             -12.3496
        20        2.0000           -0.4363282             -11.8731
        21        2.0000           -0.4212053             -11.4616
        22        2.0000           -0.4190643             -11.4033
        23        2.0000           -0.4153228             -11.3015 (HOMO)
        24                         -0.2607230              -7.0946 (LUMO)
        25                         -0.2370703              -6.4510
        26                         -0.2149873              -5.8501
        27                         -0.1061349              -2.8881
        28                          0.0570119               1.5514
        29                          0.1153931               3.1400
        30                          0.1259828               3.4282
        31                          0.1603830               4.3642
        32                          0.1623790               4.4186
        33                          0.1808463               4.9211
        34                          0.1928682               5.2482
       ...                                ...                  ...
        42                          0.6671407              18.1538
      -------------------------------------------------------------
                  HL-Gap            0.1545998 Eh            4.2069 eV

     #   Z          covCN         q      C6AA      α(0)
     1   6 C        2.923    -0.020    28.504     8.755
     2   6 C        2.974    -0.011    28.281     8.723
     3   6 C        2.696     0.360    20.884     7.479
     4   8 O        1.660    -0.377    20.399     6.097
     5   6 C        2.922    -0.020    28.518     8.757
     6   8 O        0.856    -0.407    21.813     6.262
     7   6 C        2.920    -0.025    28.617     8.773
     8   6 C        2.920    -0.024    28.599     8.770
     9   1 H        0.926     0.048     2.347     2.396
    10   6 C        2.920    -0.025    28.633     8.775
    11   1 H        0.926     0.045     2.383     2.414
    12   1 H        0.926     0.042     2.424     2.435
    13   1 H        0.804     0.329     0.640     1.257
    14   1 H        0.926     0.043     2.410     2.428
    15   1 H        0.926     0.041     2.435     2.440

Wiberg/Mayer (AO) data.
largest (>0.10) Wiberg bond orders for each atom

     #   Z sym  total        # sym  WBO       # sym  WBO       # sym  WBO
 ---------------------------------------------------------------------------
     1   6 C    3.991 --     7 C    1.446     2 C    1.399     9 H    0.969
                            10 C    0.111
     2   6 C    3.988 --     5 C    1.401     1 C    1.399     3 C    0.977
                             8 C    0.108
     3   6 C    3.911 --     6 O    1.762     4 O    1.126     2 C    0.977
     4   8 O    2.201 --     3 C    1.126    13 H    0.866     6 O    0.176
     5   6 C    3.991 --    10 C    1.446     2 C    1.401    11 H    0.970
                             7 C    0.111
     6   8 O    2.042 --     3 C    1.762     4 O    0.176
     7   6 C    3.992 --     1 C    1.446     8 C    1.438    14 H    0.970
                             5 C    0.111
     8   6 C    3.992 --    10 C    1.438     7 C    1.438    15 H    0.971
                             2 C    0.108
     9   1 H    0.998 --     1 C    0.969
    10   6 C    3.992 --     5 C    1.446     8 C    1.438    12 H    0.970
                             1 C    0.111
    11   1 H    0.998 --     5 C    0.970
    12   1 H    0.998 --    10 C    0.970
    13   1 H    0.891 --     4 O    0.866
    14   1 H    0.998 --     7 C    0.970
    15   1 H    0.998 --     8 C    0.971
 ---------------------------------------------------------------------------

molecular dipole:
                 x           y           z       tot (Debye)
 q only:        0.521       0.463       0.526
   full:        0.388       0.432       0.613       2.146

           -------------------------------------------------
          | TOTAL ENERGY              -26.168758968267 Eh   |
          | GRADIENT NORM               0.000426951349 Eh/α |
          | HOMO-LUMO GAP               4.206875459021 eV   |
           -------------------------------------------------

 * finished run on 2023/11/18 at 08:14:59.079
