                               Psi4 1.6 release

  ==> Input File <==

--------------------------------------------------------------------------
molecule {
0 1
 C    0.914351   -0.759006   -0.559417
 C   -0.153368   -0.080486    0.025386
 C   -1.420605   -0.812100    0.236055
 O   -2.389293   -0.060227    0.785652
 C   -0.009426    1.254711    0.394608
 O   -1.601016   -1.970652   -0.048201
 C    2.113617   -0.107574   -0.772206
 C    2.253850    1.221508   -0.403233
 H    0.779197   -1.793266   -0.837581
 C    1.194079    1.899557    0.178786
 H   -0.839680    1.773828    0.847226
 H    1.308125    2.934728    0.464655
 H   -3.190621   -0.594730    0.897624
 H    2.940717   -0.632904   -1.225901
 H    3.191809    1.730745   -0.569913
}
memory 20GB
set_num_threads(5)
psi4_io.set_default_path("/scratch/liuchw/Psi4-13_34_Index_0-farH_in17")
set freeze_core True
E, wfn = energy('wb97x-d/6-311+G*',return_wfn=True)
oeprop(wfn,"WIBERG_LOWDIN_INDICES")
clean()
--------------------------------------------------------------------------

    Molecular point group: c1

    Geometry (in Angstrom), charge = 0, multiplicity = 1:

       Center              X                  Y                   Z               Mass
    ------------   -----------------  -----------------  -----------------  -----------------
         C            0.921663102340    -0.778350446005    -0.564071390511    12.000000000000
         C           -0.146055897660    -0.099830446005     0.020731609489    12.000000000000
         C           -1.413292897660    -0.831444446005     0.231400609489    12.000000000000
         O           -2.381980897660    -0.079571446005     0.780997609489    15.994914619570
         C           -0.002113897660     1.235366553995     0.389953609489    12.000000000000
         O           -1.593703897660    -1.989996446005    -0.052855390511    15.994914619570
         C            2.120929102340    -0.126918446005    -0.776860390511    12.000000000000
         C            2.261162102340     1.202163553995    -0.407887390511    12.000000000000
         H            0.786509102340    -1.812610446005    -0.842235390511     1.007825032230
         C            1.201391102340     1.880212553995     0.174131609489    12.000000000000
         H           -0.832367897660     1.754483553995     0.842571609489     1.007825032230
         H            1.315437102340     2.915383553995     0.460000609489     1.007825032230
         H           -3.183308897660    -0.614074446005     0.892969609489     1.007825032230
         H            2.948029102340    -0.652248446005    -1.230555390511     1.007825032230
         H            3.199121102340     1.711400553995    -0.574567390511     1.007825032230

  Charge       = 0
  Multiplicity = 1
  Basis Set: 6-311+G*
    Blend: 6-311+G*
  Basis Set: (6-311+G* AUX)
    Blend: HEAVY-AUG-CC-PVTZ-JKFIT

    Orbital Energies [Eh]
    ---------------------

    Doubly Occupied:

       1A    -19.304211     2A    -19.240758     3A    -10.428321
       4A    -10.311963     5A    -10.305035     6A    -10.304669
       7A    -10.303074     8A    -10.300503     9A    -10.300174
      10A     -1.226336    11A     -1.129732    12A     -0.982559
      13A     -0.883827    14A     -0.866480    15A     -0.773446
      16A     -0.721627    17A     -0.695153    18A     -0.641303
      19A     -0.594639    20A     -0.576353    21A     -0.555342
      22A     -0.554204    23A     -0.541633    24A     -0.526317
      25A     -0.496171    26A     -0.473324    27A     -0.455803
      28A     -0.440556    29A     -0.418438    30A     -0.374389
      31A     -0.348555    32A     -0.346739

  @DF-RKS Final Energy:  -420.78393161338425

   => Energetics <=

    Nuclear Repulsion Energy =            407.0669921761248702
    One-Electron Energy =               -1377.8280449153630798
    Two-Electron Energy =                 589.7314961717955839
    DFT Exchange-Correlation Energy =     -39.7481831434540638
    Empirical Dispersion Energy =          -0.0061919024875123
    VV10 Nonlocal Energy =                  0.0000000000000000
    Total Energy =                       -420.7839316133842544
 Dipole X            :         -3.6744310            3.9495986            0.2751676
 Dipole Y            :         -2.3287257            3.0858934            0.7571677
 Dipole Z            :          0.5521854           -0.4200653            0.1321201
 Magnitude           :                                                    0.8163797
*** Psi4 exiting successfully. Buy a developer a beer!
