   * xtb version 6.5.0 (97a52f5) compiled by 'conda@d2599ee0d4f4' on 2022-05-15
          program call               : /home/liuchw/anaconda3/envs/xtbenv/bin/xtb --gfn 2 --chrg 0 --uhf 0 13_34_Index_0-opt-2-3-061_preQMOPTprefit_xyzformat.xyz --opt --input xtb-opt-2-3-061_constr.txt

   ID    Z sym.   atoms
    1    6 C      1-3, 5, 7, 8, 10
    2    8 O      4, 6
    3    1 H      9, 11-15
constraining angle 1 2 3 4 to   60.9996973°, actual value:   60.9996973°
constraining angle 2 3 4 13 to  179.9950114°, actual value:  179.9950114°

          :  Hamiltonian                  GFN2-xTB          :
 * total energy  :   -26.1629705 Eh     change       -0.2113261E-09 Eh
 * total energy  :   -26.1681446 Eh     change       -0.5174103E-02 Eh
 * total energy  :   -26.1685079 Eh     change       -0.3632751E-03 Eh
 * total energy  :   -26.1685885 Eh     change       -0.8061997E-04 Eh
 * total energy  :   -26.1686158 Eh     change       -0.2727980E-04 Eh
 * total energy  :   -26.1686175 Eh     change       -0.1664345E-05 Eh
 * total energy  :   -26.1686181 Eh     change       -0.6380162E-06 Eh
   *** GEOMETRY OPTIMIZATION CONVERGED AFTER 7 ITERATIONS ***

 final structure:
================
15
 xtb: 6.5.0 (97a52f5)
C            0.86215476370900       -0.74721368884862       -0.27400833948918
C           -0.23112481517537        0.06863654901901       -0.00771518959963
C           -1.59291380231961       -0.51676481775665        0.11545202877702
O           -1.67261840293952       -1.40363945901467        1.11789437963834
C           -0.07155276457421        1.44841158259758        0.05366246336747
O           -2.53800944413743       -0.22164756409463       -0.56680432302665
C            2.11403587958908       -0.18406787202468       -0.44653695816907
C            2.27745650310671        1.18837099372865       -0.35726607714822
H            0.72901909279682       -1.81663339730601       -0.33931005389266
C            1.18529877477502        2.00295603836849       -0.10632117146447
H           -0.93186900083820        2.07483033061658        0.23511044304941
H            1.31172127215860        3.07352779529971       -0.04381571531635
H           -2.57000484189284       -1.76929072041574        1.17578718147364
H            2.96346495312116       -0.81787143752270       -0.65370725075775
H            3.25667883262079        1.62453065735368       -0.48888441744191

          :  Hamiltonian                  GFN2-xTB          :
         :: total energy             -26.168618117998 Eh    ::
         :: gradient norm              0.000452256406 Eh/a0 ::
         :: HOMO-LUMO gap              4.232907297207 eV    ::
         :: SCC energy               -26.550282867737 Eh    ::
         :: -> dispersion             -0.011795580298 Eh    ::
         :: repulsion energy           0.381642099610 Eh    ::

    * Orbital Energies and Occupations

         #    Occupation            Energy/Eh            Energy/eV
      -------------------------------------------------------------
         1        2.0000           -0.7478474             -20.3500
       ...           ...                  ...                  ...
        11        2.0000           -0.5650628             -15.3761
        12        2.0000           -0.5342053             -14.5365
        13        2.0000           -0.5083345             -13.8325
        14        2.0000           -0.5048906             -13.7388
        15        2.0000           -0.4943262             -13.4513
        16        2.0000           -0.4908761             -13.3574
        17        2.0000           -0.4904761             -13.3465
        18        2.0000           -0.4787752             -13.0281
        19        2.0000           -0.4538519             -12.3499
        20        2.0000           -0.4362446             -11.8708
        21        2.0000           -0.4208125             -11.4509
        22        2.0000           -0.4189506             -11.4002
        23        2.0000           -0.4155925             -11.3088 (HOMO)
        24                         -0.2600360              -7.0759 (LUMO)
        25                         -0.2369122              -6.4467
        26                         -0.2158869              -5.8746
        27                         -0.1061542              -2.8886
        28                          0.0547829               1.4907
        29                          0.1152549               3.1362
        30                          0.1274339               3.4677
        31                          0.1608165               4.3760
        32                          0.1626670               4.4264
        33                          0.1810449               4.9265
        34                          0.1930714               5.2537
       ...                                ...                  ...
        42                          0.6687430              18.1974
      -------------------------------------------------------------
                  HL-Gap            0.1555565 Eh            4.2329 eV

     #   Z          covCN         q      C6AA      α(0)
     1   6 C        2.922    -0.021    28.520     8.758
     2   6 C        2.974    -0.011    28.283     8.724
     3   6 C        2.696     0.361    20.879     7.478
     4   8 O        1.660    -0.376    20.390     6.096
     5   6 C        2.923    -0.020    28.504     8.755
     6   8 O        0.856    -0.406    21.801     6.260
     7   6 C        2.920    -0.025    28.633     8.775
     8   6 C        2.920    -0.024    28.602     8.770
     9   1 H        0.926     0.044     2.390     2.418
    10   6 C        2.920    -0.025    28.616     8.772
    11   1 H        0.926     0.047     2.351     2.398
    12   1 H        0.926     0.043     2.411     2.428
    13   1 H        0.804     0.329     0.641     1.258
    14   1 H        0.926     0.042     2.423     2.434
    15   1 H        0.926     0.041     2.435     2.440

Wiberg/Mayer (AO) data.
largest (>0.10) Wiberg bond orders for each atom

     #   Z sym  total        # sym  WBO       # sym  WBO       # sym  WBO
 ---------------------------------------------------------------------------
     1   6 C    3.991 --     7 C    1.444     2 C    1.401     9 H    0.970
                            10 C    0.111
     2   6 C    3.988 --     1 C    1.401     5 C    1.399     3 C    0.976
                             8 C    0.109
     3   6 C    3.911 --     6 O    1.762     4 O    1.127     2 C    0.976
     4   8 O    2.201 --     3 C    1.127    13 H    0.866     6 O    0.176
     5   6 C    3.990 --    10 C    1.447     2 C    1.399    11 H    0.969
                             7 C    0.112
     6   8 O    2.044 --     3 C    1.762     4 O    0.176
     7   6 C    3.992 --     1 C    1.444     8 C    1.439    14 H    0.970
                             5 C    0.112
     8   6 C    3.992 --     7 C    1.439    10 C    1.437    15 H    0.971
                             2 C    0.109
     9   1 H    0.998 --     1 C    0.970
    10   6 C    3.992 --     5 C    1.447     8 C    1.437    12 H    0.970
                             1 C    0.111
    11   1 H    0.998 --     5 C    0.969
    12   1 H    0.998 --    10 C    0.970
    13   1 H    0.891 --     4 O    0.866
    14   1 H    0.998 --     7 C    0.970
    15   1 H    0.998 --     8 C    0.971
 ---------------------------------------------------------------------------

molecular dipole:
                 x           y           z       tot (Debye)
 q only:        0.741      -0.104       0.400
   full:        0.635      -0.212       0.459       2.064

           -------------------------------------------------
          | TOTAL ENERGY              -26.168618117998 Eh   |
          | GRADIENT NORM               0.000452256406 Eh/α |
          | HOMO-LUMO GAP               4.232907297207 eV   |
           -------------------------------------------------

 * finished run on 2023/11/18 at 08:15:26.993
