                               Psi4 1.6 release

  ==> Input File <==

--------------------------------------------------------------------------
molecule {
0 1
 C    0.788664   -0.675725   -0.646349
 C   -0.137777   -0.046198    0.174684
 C   -1.407529   -0.742716    0.537354
 O   -2.376847   -0.501770   -0.354571
 C    0.124602    1.221873    0.676579
 O   -1.570262   -1.437313    1.503692
 C    1.972434   -0.033744   -0.965618
 C    2.233658    1.231825   -0.468117
 H    0.582411   -1.663511   -1.030754
 C    1.310173    1.857845    0.352090
 H   -0.596648    1.705437    1.318434
 H    1.512703    2.844236    0.741973
 H   -3.194368   -0.962099   -0.103123
 H    2.692109   -0.524142   -1.604037
 H    3.158410    1.730134   -0.718695
}
memory 20GB
set_num_threads(5)
psi4_io.set_default_path("/scratch/liuchw/Psi4-13_34_Index_0-farH_in17")
set freeze_core True
E, wfn = energy('wb97x-d/6-311+G*',return_wfn=True)
oeprop(wfn,"WIBERG_LOWDIN_INDICES")
clean()
--------------------------------------------------------------------------

    Molecular point group: c1

    Geometry (in Angstrom), charge = 0, multiplicity = 1:

       Center              X                  Y                   Z               Mass
    ------------   -----------------  -----------------  -----------------  -----------------
         C            0.791415993610    -0.724046504250    -0.752058451011    12.000000000000
         C           -0.135025006390    -0.094519504250     0.068974548989    12.000000000000
         C           -1.404777006390    -0.791037504250     0.431644548989    12.000000000000
         O           -2.374095006390    -0.550091504250    -0.460280451011    15.994914619570
         C            0.127353993610     1.173551495750     0.570869548989    12.000000000000
         O           -1.567510006390    -1.485634504250     1.397982548989    15.994914619570
         C            1.975185993610    -0.082065504250    -1.071327451011    12.000000000000
         C            2.236409993610     1.183503495750    -0.573826451011    12.000000000000
         H            0.585162993610    -1.711832504250    -1.136463451011     1.007825032230
         C            1.312924993610     1.809523495750     0.246380548989    12.000000000000
         H           -0.593896006390     1.657115495750     1.212724548989     1.007825032230
         H            1.515454993610     2.795914495750     0.636263548989     1.007825032230
         H           -3.191616006390    -1.010420504250    -0.208832451011     1.007825032230
         H            2.694860993610    -0.572463504250    -1.709746451011     1.007825032230
         H            3.161161993610     1.681812495750    -0.824404451011     1.007825032230

  Charge       = 0
  Multiplicity = 1
  Basis Set: 6-311+G*
    Blend: 6-311+G*
  Basis Set: (6-311+G* AUX)
    Blend: HEAVY-AUG-CC-PVTZ-JKFIT

    Orbital Energies [Eh]
    ---------------------

    Doubly Occupied:

       1A    -19.309142     2A    -19.249050     3A    -10.433290
       4A    -10.315298     5A    -10.304067     6A    -10.304031
       7A    -10.299959     8A    -10.299729     9A    -10.298962
      10A     -1.231756    11A     -1.136941    12A     -0.982370
      13A     -0.883546    14A     -0.866184    15A     -0.775194
      16A     -0.720761    17A     -0.701229    18A     -0.642036
      19A     -0.590274    20A     -0.585747    21A     -0.576689
      22A     -0.544582    23A     -0.530692    24A     -0.523355
      25A     -0.501741    26A     -0.476343    27A     -0.453784
      28A     -0.443858    29A     -0.421967    30A     -0.382182
      31A     -0.346159    32A     -0.341305

  @DF-RKS Final Energy:  -420.77326570319912

   => Energetics <=

    Nuclear Repulsion Energy =            405.6849446369324710
    One-Electron Energy =               -1374.9444193631602502
    Two-Electron Energy =                 588.2357772515852048
    DFT Exchange-Correlation Energy =     -39.7432082035342660
    Empirical Dispersion Energy =          -0.0063600250222836
    VV10 Nonlocal Energy =                  0.0000000000000000
    Total Energy =                       -420.7732657031991721
 Dipole X            :         -3.7987585            3.8913667            0.0926082
 Dipole Y            :         -2.2333152            2.6527498            0.4194345
 Dipole Z            :          1.3125691           -1.8989874           -0.5864184
 Magnitude           :                                                    0.7269031
*** Psi4 exiting successfully. Buy a developer a beer!
