   * xtb version 6.5.0 (97a52f5) compiled by 'conda@d2599ee0d4f4' on 2022-05-15
          program call               : /home/liuchw/anaconda3/envs/xtbenv/bin/xtb --gfn 2 --chrg 0 --uhf 0 13_34_Index_0-opt-2-3-301_preQMOPTprefit_xyzformat.xyz --opt --input xtb-opt-2-3-301_constr.txt

   ID    Z sym.   atoms
    1    6 C      1-3, 5, 7, 8, 10
    2    8 O      4, 6
    3    1 H      9, 11-15
constraining angle 1 2 3 4 to  300.9980351°, actual value:  -59.0019649°
constraining angle 2 3 4 13 to  180.0051031°, actual value: -179.9948969°

          :  Hamiltonian                  GFN2-xTB          :
 * total energy  :   -26.1631929 Eh     change       -0.2439364E-09 Eh
 * total energy  :   -26.1683695 Eh     change       -0.5176612E-02 Eh
 * total energy  :   -26.1687343 Eh     change       -0.3647951E-03 Eh
 * total energy  :   -26.1688148 Eh     change       -0.8047124E-04 Eh
 * total energy  :   -26.1688418 Eh     change       -0.2702749E-04 Eh
 * total energy  :   -26.1688435 Eh     change       -0.1696938E-05 Eh
 * total energy  :   -26.1688442 Eh     change       -0.6463052E-06 Eh
   *** GEOMETRY OPTIMIZATION CONVERGED AFTER 7 ITERATIONS ***

 final structure:
================
15
 xtb: 6.5.0 (97a52f5)
C            0.70849045700068       -0.60795415083790       -0.70948973441256
C           -0.17438971743669        0.01910031504259        0.16197559904132
C           -1.44345581970402       -0.64819975109189        0.55528973568844
O           -2.21810377668117       -0.92631633646358       -0.50340882349611
C            0.16809435640758        1.23404069807291        0.74513045774191
O           -1.77786547777138       -0.88920426819066        1.68500874475164
C            1.91395684040568       -0.00379158307191       -1.01898326620674
C            2.24192018593362        1.22038202989545       -0.46020340097877
H            0.44553987238113       -1.56057986378262       -1.14416641098957
C            1.36872539274289        1.83851057511784        0.42011521241895
H           -0.51359696639205        1.69901365560040        1.44120767909155
H            1.62800949870339        2.78943093224770        0.86116214288524
H           -3.03794887117442       -1.36041025203094       -0.21762496027167
H            2.60015655475516       -0.49094805894300       -1.69571220567702
H            3.18220047082959        1.69105904843561       -0.70675678958659

          :  Hamiltonian                  GFN2-xTB          :
         :: total energy             -26.168844154112 Eh    ::
         :: gradient norm              0.000479613375 Eh/a0 ::
         :: HOMO-LUMO gap              4.204422524926 eV    ::
         :: SCC energy               -26.550473230434 Eh    ::
         :: -> dispersion             -0.011794217936 Eh    ::
         :: repulsion energy           0.381606491420 Eh    ::

    * Orbital Energies and Occupations

         #    Occupation            Energy/Eh            Energy/eV
      -------------------------------------------------------------
         1        2.0000           -0.7475675             -20.3423
       ...           ...                  ...                  ...
        11        2.0000           -0.5649161             -15.3722
        12        2.0000           -0.5340692             -14.5328
        13        2.0000           -0.5083707             -13.8335
        14        2.0000           -0.5048386             -13.7374
        15        2.0000           -0.4942356             -13.4488
        16        2.0000           -0.4909628             -13.3598
        17        2.0000           -0.4904522             -13.3459
        18        2.0000           -0.4785003             -13.0207
        19        2.0000           -0.4537034             -12.3459
        20        2.0000           -0.4362200             -11.8702
        21        2.0000           -0.4208745             -11.4526
        22        2.0000           -0.4190278             -11.4023
        23        2.0000           -0.4156290             -11.3098 (HOMO)
        24                         -0.2611193              -7.1054 (LUMO)
        25                         -0.2369460              -6.4476
        26                         -0.2143664              -5.8332
        27                         -0.1058214              -2.8795
        28                          0.0550432               1.4978
        29                          0.1153850               3.1398
        30                          0.1273404               3.4651
        31                          0.1607945               4.3754
        32                          0.1629057               4.4329
        33                          0.1811033               4.9281
        34                          0.1927737               5.2456
       ...                                ...                  ...
        42                          0.6696609              18.2224
      -------------------------------------------------------------
                  HL-Gap            0.1545097 Eh            4.2044 eV

     #   Z          covCN         q      C6AA      α(0)
     1   6 C        2.922    -0.020    28.518     8.757
     2   6 C        2.974    -0.011    28.289     8.724
     3   6 C        2.696     0.360    20.884     7.479
     4   8 O        1.660    -0.376    20.395     6.097
     5   6 C        2.923    -0.020    28.501     8.755
     6   8 O        0.856    -0.407    21.812     6.262
     7   6 C        2.920    -0.025    28.634     8.775
     8   6 C        2.920    -0.024    28.598     8.770
     9   1 H        0.926     0.045     2.384     2.414
    10   6 C        2.920    -0.025    28.617     8.772
    11   1 H        0.926     0.048     2.343     2.394
    12   1 H        0.926     0.043     2.410     2.428
    13   1 H        0.804     0.328     0.641     1.258
    14   1 H        0.926     0.042     2.423     2.434
    15   1 H        0.926     0.041     2.435     2.440

Wiberg/Mayer (AO) data.
largest (>0.10) Wiberg bond orders for each atom

     #   Z sym  total        # sym  WBO       # sym  WBO       # sym  WBO
 ---------------------------------------------------------------------------
     1   6 C    3.991 --     7 C    1.445     2 C    1.401     9 H    0.970
                            10 C    0.111
     2   6 C    3.988 --     1 C    1.401     5 C    1.398     3 C    0.978
                             8 C    0.108
     3   6 C    3.911 --     6 O    1.760     4 O    1.127     2 C    0.978
     4   8 O    2.201 --     3 C    1.127    13 H    0.866     6 O    0.176
     5   6 C    3.990 --    10 C    1.447     2 C    1.398    11 H    0.969
                             7 C    0.111
     6   8 O    2.043 --     3 C    1.760     4 O    0.176
     7   6 C    3.992 --     1 C    1.445     8 C    1.439    14 H    0.970
                             5 C    0.111
     8   6 C    3.992 --     7 C    1.439    10 C    1.437    15 H    0.971
                             2 C    0.108
     9   1 H    0.998 --     1 C    0.970
    10   6 C    3.992 --     5 C    1.447     8 C    1.437    12 H    0.970
                             1 C    0.111
    11   1 H    0.998 --     5 C    0.969
    12   1 H    0.998 --    10 C    0.970
    13   1 H    0.891 --     4 O    0.866
    14   1 H    0.998 --     7 C    0.970
    15   1 H    0.998 --     8 C    0.971
 ---------------------------------------------------------------------------

molecular dipole:
                 x           y           z       tot (Debye)
 q only:        0.365       0.234      -0.733
   full:        0.229       0.153      -0.767       2.072

           -------------------------------------------------
          | TOTAL ENERGY              -26.168844154112 Eh   |
          | GRADIENT NORM               0.000479613375 Eh/α |
          | HOMO-LUMO GAP               4.204422524926 eV   |
           -------------------------------------------------

 * finished run on 2023/11/18 at 08:13:50.592
