                               Psi4 1.6 release

  ==> Input File <==

--------------------------------------------------------------------------
molecule {
0 1
 C    0.605058   -0.495089   -0.835391
 C   -0.210752    0.081017    0.135293
 C   -1.539192   -0.478274    0.464988
 O   -1.847168   -1.580133   -0.239878
 C    0.219705    1.215129    0.821399
 O   -2.296175   -0.015422    1.282365
 C    1.839311    0.062395   -1.112227
 C    2.264519    1.190084   -0.427343
 H    0.265494   -1.372361   -1.363358
 C    1.454520    1.766041    0.539280
 H   -0.429884    1.644475    1.569079
 H    1.788432    2.644488    1.071077
 H   -2.725759   -1.896993    0.020776
 H    2.473523   -0.382483   -1.864709
 H    3.230102    1.621261   -0.647806
}
memory 20GB
set_num_threads(5)
psi4_io.set_default_path("/scratch/liuchw/Psi4-13_34_Index_0-farH_in17")
set freeze_core True
E, wfn = energy('wb97x-d/6-311+G*',return_wfn=True)
oeprop(wfn,"WIBERG_LOWDIN_INDICES")
clean()
--------------------------------------------------------------------------

    Molecular point group: c1

    Geometry (in Angstrom), charge = 0, multiplicity = 1:

       Center              X                  Y                   Z               Mass
    ------------   -----------------  -----------------  -----------------  -----------------
         C            0.654522362090    -0.633169741180    -0.921283389600    12.000000000000
         C           -0.161287637910    -0.057063741180     0.049400610400    12.000000000000
         C           -1.489727637910    -0.616354741180     0.379095610400    12.000000000000
         O           -1.797703637910    -1.718213741180    -0.325770389600    15.994914619570
         C            0.269169362090     1.077048258820     0.735506610400    12.000000000000
         O           -2.246710637910    -0.153502741180     1.196472610400    15.994914619570
         C            1.888775362090    -0.075685741180    -1.198119389600    12.000000000000
         C            2.313983362090     1.052003258820    -0.513235389600    12.000000000000
         H            0.314958362090    -1.510441741180    -1.449250389600     1.007825032230
         C            1.503984362090     1.627960258820     0.453387610400    12.000000000000
         H           -0.380419637910     1.506394258820     1.483186610400     1.007825032230
         H            1.837896362090     2.506407258820     0.985184610400     1.007825032230
         H           -2.676294637910    -2.035073741180    -0.065116389600     1.007825032230
         H            2.522987362090    -0.520563741180    -1.950601389600     1.007825032230
         H            3.279566362090     1.483180258820    -0.733698389600     1.007825032230

  Charge       = 0
  Multiplicity = 1
  Basis Set: 6-311+G*
    Blend: 6-311+G*
  Basis Set: (6-311+G* AUX)
    Blend: HEAVY-AUG-CC-PVTZ-JKFIT

    Orbital Energies [Eh]
    ---------------------

    Doubly Occupied:

       1A    -19.304228     2A    -19.240792     3A    -10.428338
       4A    -10.311955     5A    -10.305008     6A    -10.304642
       7A    -10.303050     8A    -10.300484     9A    -10.300155
      10A     -1.226352    11A     -1.129809    12A     -0.982551
      13A     -0.883798    14A     -0.866465    15A     -0.773436
      16A     -0.721607    17A     -0.695156    18A     -0.641293
      19A     -0.594635    20A     -0.576356    21A     -0.555344
      22A     -0.554200    23A     -0.541636    24A     -0.526299
      25A     -0.496177    26A     -0.473322    27A     -0.455792
      28A     -0.440544    29A     -0.418477    30A     -0.374412
      31A     -0.348544    32A     -0.346729

  @DF-RKS Final Energy:  -420.78393587524675

   => Energetics <=

    Nuclear Repulsion Energy =            407.0660065369519884
    One-Electron Energy =               -1377.8261561602739675
    Two-Electron Energy =                 589.7306248683936474
    DFT Exchange-Correlation Energy =     -39.7482191071685733
    Empirical Dispersion Energy =          -0.0061920131498785
    VV10 Nonlocal Energy =                  0.0000000000000000
    Total Energy =                       -420.7839358752466978
 Dipole X            :         -3.9631929            4.5729429            0.6097500
 Dipole Y            :         -1.5177054            1.3314964           -0.1862090
 Dipole Z            :          1.1089568           -1.6179154           -0.5089585
 Magnitude           :                                                    0.8157865
*** Psi4 exiting successfully. Buy a developer a beer!
