                               Psi4 1.6 release

  ==> Input File <==

--------------------------------------------------------------------------
molecule {
0 1
 C    0.898975   -0.751323   -0.573618
 C   -0.127574   -0.100087    0.105267
 C   -1.391326   -0.830742    0.352538
 O   -2.463518   -0.022576    0.378609
 C    0.029973    1.225005    0.500408
 O   -1.484737   -2.024937    0.484297
 C    2.078107   -0.083451   -0.844409
 C    2.238132    1.232160   -0.438597
 H    0.755646   -1.777867   -0.875239
 C    1.216417    1.883191    0.234508
 H   -0.773150    1.724936    1.019529
 H    1.344597    2.908447    0.548688
 H   -3.265025   -0.543718    0.542704
 H    2.873850   -0.587022   -1.372754
 H    3.161368    1.752117   -0.648389
}
memory 20GB
set_num_threads(5)
psi4_io.set_default_path("/scratch/liuchw/Psi4-13_34_Index_0-farH_in17")
set freeze_core True
E, wfn = energy('wb97x-d/6-311+G*',return_wfn=True)
oeprop(wfn,"WIBERG_LOWDIN_INDICES")
clean()
--------------------------------------------------------------------------

    Molecular point group: c1

    Geometry (in Angstrom), charge = 0, multiplicity = 1:

       Center              X                  Y                   Z               Mass
    ------------   -----------------  -----------------  -----------------  -----------------
         C            0.896600357084    -0.764854495915    -0.614947053098    12.000000000000
         C           -0.129948642916    -0.113618495915     0.063937946902    12.000000000000
         C           -1.393700642916    -0.844273495915     0.311208946902    12.000000000000
         O           -2.465892642916    -0.036107495915     0.337279946902    15.994914619570
         C            0.027598357084     1.211473504085     0.459078946902    12.000000000000
         O           -1.487111642916    -2.038468495915     0.442967946902    15.994914619570
         C            2.075732357084    -0.096982495915    -0.885738053098    12.000000000000
         C            2.235757357084     1.218628504085    -0.479926053098    12.000000000000
         H            0.753271357084    -1.791398495915    -0.916568053098     1.007825032230
         C            1.214042357084     1.869659504085     0.193178946902    12.000000000000
         H           -0.775524642916     1.711404504085     0.978199946902     1.007825032230
         H            1.342222357084     2.894915504085     0.507358946902     1.007825032230
         H           -3.267399642916    -0.557249495915     0.501374946902     1.007825032230
         H            2.871475357084    -0.600553495915    -1.414083053098     1.007825032230
         H            3.158993357084     1.738585504085    -0.689718053098     1.007825032230

  Charge       = 0
  Multiplicity = 1
  Basis Set: 6-311+G*
    Blend: 6-311+G*
  Basis Set: (6-311+G* AUX)
    Blend: HEAVY-AUG-CC-PVTZ-JKFIT

    Orbital Energies [Eh]
    ---------------------

    Doubly Occupied:

       1A    -19.305113     2A    -19.242176     3A    -10.428881
       4A    -10.312657     5A    -10.304807     6A    -10.304005
       7A    -10.303833     8A    -10.300583     9A    -10.300325
      10A     -1.227127    11A     -1.131169    12A     -0.982844
      13A     -0.884043    14A     -0.866759    15A     -0.773920
      16A     -0.721646    17A     -0.696647    18A     -0.641414
      19A     -0.593247    20A     -0.578436    21A     -0.565435
      22A     -0.548059    23A     -0.537494    24A     -0.525649
      25A     -0.497580    26A     -0.474441    27A     -0.455954
      28A     -0.442172    29A     -0.418044    30A     -0.376715
      31A     -0.347768    32A     -0.345634

  @DF-RKS Final Energy:  -420.78158967400719

   => Energetics <=

    Nuclear Repulsion Energy =            406.8698608785084048
    One-Electron Energy =               -1377.4038359206870155
    Two-Electron Energy =                 589.5056837082966013
    DFT Exchange-Correlation Energy =     -39.7470373906567360
    Empirical Dispersion Energy =          -0.0062609494685065
    VV10 Nonlocal Energy =                  0.0000000000000000
    Total Energy =                       -420.7815896740071935
 Dipole X            :         -3.6234227            3.8087295            0.1853068
 Dipole Y            :         -2.3912508            3.1734006            0.7821498
 Dipole Z            :          0.8447924           -0.9650650           -0.1202726
 Magnitude           :                                                    0.8127499
*** Psi4 exiting successfully. Buy a developer a beer!
