                               Psi4 1.6 release

  ==> Input File <==

--------------------------------------------------------------------------
molecule {
0 1
C          1.74620       -1.05080        0.18250
N          2.96770       -1.22590        0.93830
C          4.20790       -0.75070        0.46350
C          5.41700       -0.91200        1.42550
C          2.83610       -1.83070        2.26690
O          4.37860       -0.19540       -0.62670
C          0.49640       -1.04020        0.82360
C         -0.69030       -0.69330       -1.27690
C         -0.69900       -0.87610        0.10610
C          0.54570       -0.74670       -1.92620
C          1.74110       -0.91260       -1.20990
H          3.76190       -2.31380        2.58500
H          2.07280       -2.61550        2.26200
H          2.58270       -1.04830        2.98880
N          6.60930       -0.19800        0.91940
H          5.63850       -1.98490        1.46880
H          5.16110       -0.54490        2.42510
H          0.40570       -1.13160        1.90150
H         -1.63560       -0.88150        0.65530
H          0.59670       -0.66530       -3.00930
H          2.65370       -0.96970       -1.79450
N         -1.86950       -0.60480       -2.05600
H         -1.68130       -0.10010       -2.92110
H          6.84300       -0.54370       -0.01130
H          7.39510       -0.35950        1.54930
H         -2.74410       -0.97680       -1.79920
}
memory 208GB
set_num_threads(51)
psi4_io.set_default_path("/scratch/liuchw/Psi4-farH_in17")
set maxiter 500
set freeze_core True
set PROPERTIES_ORIGIN ["COM"]
set cubeprop_tasks ['esp']
set basis MINIX
E, wfn = properties('hf',properties=['dipole','WIBERG_LOWDIN_INDICES','MULLIKEN_CHARGES'],return_wfn=True)
cubeprop(wfn)
fchk(wfn, "farH_in17-esp_frag.fchk")
clean()
--------------------------------------------------------------------------

    Molecular point group: c1

    Geometry (in Angstrom), charge = 0, multiplicity = 1:

       Center              X                  Y                   Z               Mass
    ------------   -----------------  -----------------  -----------------  -----------------
         C           -0.467409260558    -0.204725771390     0.161227227449    12.000000000000
         N            0.754090739442    -0.379825771390     0.917027227449    14.003074004430
         C            1.994290739442     0.095374228610     0.442227227449    12.000000000000
         C            3.203390739442    -0.065925771390     1.404227227449    12.000000000000
         C            0.622490739442    -0.984625771390     2.245627227449    12.000000000000
         O            2.164990739442     0.650674228610    -0.647972772551    15.994914619570
         C           -1.717209260558    -0.194125771390     0.802327227449    12.000000000000
         C           -2.903909260558     0.152774228610    -1.298172772551    12.000000000000
         C           -2.912609260558    -0.030025771390     0.084827227449    12.000000000000
         C           -1.667909260558     0.099374228610    -1.947472772551    12.000000000000
         C           -0.472509260558    -0.066525771390    -1.231172772551    12.000000000000
         H            1.548290739442    -1.467725771390     2.563727227449     1.007825032230
         H           -0.140809260558    -1.769425771390     2.240727227449     1.007825032230
         H            0.369090739442    -0.202225771390     2.967527227449     1.007825032230
         N            4.395690739442     0.648074228610     0.898127227449    14.003074004430
         H            3.424890739442    -1.138825771390     1.447527227449     1.007825032230
         H            2.947490739442     0.301174228610     2.403827227449     1.007825032230
         H           -1.807909260558    -0.285525771390     1.880227227449     1.007825032230
         H           -3.849209260558    -0.035425771390     0.634027227449     1.007825032230
         H           -1.616909260558     0.180774228610    -3.030572772551     1.007825032230
         H            0.440090739442    -0.123625771390    -1.815772772551     1.007825032230
         N           -4.083109260558     0.241274228610    -2.077272772551    14.003074004430
         H           -3.894909260558     0.745974228610    -2.942372772551     1.007825032230
         H            4.629390739442     0.302374228610    -0.032572772551     1.007825032230
         H            5.181490739442     0.486574228610     1.528027227449     1.007825032230
         H           -4.957709260558    -0.130725771390    -1.820472772551     1.007825032230

  Charge       = 0
  Multiplicity = 1
  Basis Set: MINIX
    Blend: MINIX
  Basis Set: (MINIX AUX)
    Blend: DEF2-UNIVERSAL-JKFIT

    Orbital Energies [Eh]
    ---------------------

    Doubly Occupied:

       1A    -20.291696     2A    -15.444375     3A    -15.375597
       4A    -15.362219     5A    -11.315194     6A    -11.220568
       7A    -11.215825     8A    -11.212587     9A    -11.209110
      10A    -11.166163    11A    -11.162503    12A    -11.156803
      13A    -11.153894    14A     -1.367623    15A     -1.236197
      16A     -1.190392    17A     -1.159997    18A     -1.110302
      19A     -1.008049    20A     -0.992566    21A     -0.958679
      22A     -0.922540    23A     -0.828271    24A     -0.807409
      25A     -0.742248    26A     -0.698019    27A     -0.687418
      28A     -0.665677    29A     -0.654842    30A     -0.646883
      31A     -0.620323    32A     -0.611113    33A     -0.598030
      34A     -0.580482    35A     -0.566754    36A     -0.558945
      37A     -0.549573    38A     -0.531273    39A     -0.528979
      40A     -0.509231    41A     -0.507899    42A     -0.480690
      43A     -0.438716    44A     -0.391840    45A     -0.370303
      46A     -0.366566    47A     -0.338439    48A     -0.270851

  @DF-RHF Final Energy:  -582.53586739163018

   => Energetics <=

    Nuclear Repulsion Energy =            769.0862994106751103
    One-Electron Energy =               -2319.6769741366770177
    Two-Electron Energy =                 968.0548073343717306
    Total Energy =                       -582.5358673916301768
 Dipole X            :         -2.5269131            2.1384348           -0.3884782
 Dipole Y            :          1.7472632           -2.9388530           -1.1915899
 Dipole Z            :         -4.7323559            5.6448271            0.9124711
 Magnitude           :                                                    1.5502920

  Mulliken Charges: (a.u.)
   Center  Symbol    Alpha    Beta     Spin     Total
       1     C     2.95934  2.95934  0.00000  0.08132
       2     N     3.66020  3.66020  0.00000 -0.32041
       3     C     2.80238  2.80238  0.00000  0.39524
       4     C     3.08050  3.08050  0.00000 -0.16100
       5     C     3.12302  3.12302  0.00000 -0.24604
       6     O     4.20730  4.20730  0.00000 -0.41460
       7     C     3.07145  3.07145  0.00000 -0.14290
       8     C     2.95195  2.95195  0.00000  0.09610
       9     C     3.07931  3.07931  0.00000 -0.15862
      10     C     3.07725  3.07725  0.00000 -0.15451
      11     C     3.06522  3.06522  0.00000 -0.13045
      12     H     0.43105  0.43105  0.00000  0.13790
      13     H     0.42687  0.42687  0.00000  0.14625
      14     H     0.43291  0.43291  0.00000  0.13418
      15     N     3.74222  3.74222  0.00000 -0.48444
      16     H     0.43931  0.43931  0.00000  0.12137
      17     H     0.42856  0.42856  0.00000  0.14288
      18     H     0.43297  0.43297  0.00000  0.13406
      19     H     0.43383  0.43383  0.00000  0.13235
      20     H     0.43389  0.43389  0.00000  0.13222
      21     H     0.41637  0.41637  0.00000  0.16727
      22     N     3.75924  3.75924  0.00000 -0.51848
      23     H     0.38049  0.38049  0.00000  0.23903
      24     H     0.39064  0.39064  0.00000  0.21872
      25     H     0.39756  0.39756  0.00000  0.20487
      26     H     0.37615  0.37615  0.00000  0.24771

   Total alpha = 48.00000, Total beta = 48.00000, Total charge = -0.00000

  Basis Set: MINIX
    Blend: MINIX
*** Psi4 exiting successfully. Buy a developer a beer!
