                               Psi4 1.6 release

  ==> Input File <==

--------------------------------------------------------------------------
molecule {
0 1
 O    0.005800    0.397800    0.000000
 H    0.760500   -0.210000    0.000000
 H   -0.766300   -0.187700    0.000000
}
set {
  geom_maxiter 400
  g_convergence GAU_LOOSE
  dynamic_level 1
}
geometric_keywords = {
 'coordsys' : 'tric',
 'convergence_cmax' : 1e0,
 'convergence_set' : 'GAU_LOOSE',
 'convergence_energy' : 1e-4,
}
memory 209GB
set_num_threads(51)
psi4_io.set_default_path("/scratch/liuchw/Psi4-water_3D")
basis {
assign 6-31G*
}
opt_finished = False
if not opt_finished:
    try:
        ener, opt_hist = optimize('mp2',engine='geometric',optimizer_keywords=geometric_keywords, return_history=True)
        opt_finished = len(opt_hist['energy']) < 400
    except Exception as e:
        core.print_out('Exception: %s'%(e))
if not opt_finished:
    try:
        optimize('mp2')
    except:
        set opt_coordinates both
        optimize('mp2')
    opt_finished = True
clean()
assert opt_finished

--------------------------------------------------------------------------

    Molecular point group: cs
  Charge       = 0
  Multiplicity = 1
  Basis Set: ANONYMOUSC077CE2F
    Blend: 6-31G*
  Basis Set: (ANONYMOUSC077CE2F AUX)
    Blend: CC-PVDZ-JKFIT
  @DF-RHF Final Energy:   -76.00974469799897
    Total Energy =                        -76.0097446979989542
 Dipole X            :          0.0015998           -0.0144817           -0.0128820
 Dipole Y            :          0.1102289           -0.9931643           -0.8829354
 Dipole Z            :          0.0000000            0.0000000            0.0000000
 Magnitude           :                                                    0.8830294
  Basis Set: (ANONYMOUSC077CE2F AUX)
    Blend: CC-PVDZ-RI
    Molecular point group: cs
  Basis Set: ANONYMOUSC077CE2F
    Blend: 6-31G*
  Basis Set: (ANONYMOUSC077CE2F AUX)
    Blend: CC-PVDZ-JKFIT
  Basis Set: (ANONYMOUSC077CE2F AUX)
    Blend: CC-PVDZ-JKFIT
	 Reference Energy          =     -76.0097446979989684 [Eh]
	 Singles Energy            =      -0.0000000000000000 [Eh]
	 Same-Spin Energy          =      -0.0485769360704178 [Eh]
	 Opposite-Spin Energy      =      -0.1408434102023820 [Eh]
	 Correlation Energy        =      -0.1894203462727998 [Eh]
	 Total Energy              =     -76.1991650442717656 [Eh]
	 SCS Total Energy          =     -76.1949491022652978 [Eh]
  Charge       = 0
  Multiplicity = 1
  Basis Set: ANONYMOUSC077CE2F
    Blend: 6-31G*
  Basis Set: (ANONYMOUSC077CE2F AUX)
    Blend: CC-PVDZ-JKFIT

    Orbital Energies [Eh]
    ---------------------

    Doubly Occupied:

       1Ap   -20.562905     2Ap    -1.336426     3Ap    -0.699762
       4Ap    -0.569984     1App   -0.497349

  @DF-RHF Final Energy:   -76.00977809402981

   => Energetics <=

    Nuclear Repulsion Energy =              9.0878563559377348
    One-Electron Energy =                -122.8624163357313677
    Two-Electron Energy =                  37.7647818857638313
    Total Energy =                        -76.0097780940297980
 Dipole X            :          0.0015271           -0.0144164           -0.0128892
 Dipole Y            :          0.1133268           -0.9960465           -0.8827197
 Dipole Z            :          0.0000000            0.0000000            0.0000000
 Magnitude           :                                                    0.8828138
  Basis Set: (ANONYMOUSC077CE2F AUX)
    Blend: CC-PVDZ-RI
    Molecular point group: cs
  Basis Set: ANONYMOUSC077CE2F
    Blend: 6-31G*
  Basis Set: (ANONYMOUSC077CE2F AUX)
    Blend: CC-PVDZ-JKFIT
  Basis Set: (ANONYMOUSC077CE2F AUX)
    Blend: CC-PVDZ-JKFIT
	 Reference Energy          =     -76.0097780940298122 [Eh]
	 Singles Energy            =      -0.0000000000000000 [Eh]
	 Same-Spin Energy          =      -0.0485704944291499 [Eh]
	 Opposite-Spin Energy      =      -0.1408167725273160 [Eh]
	 Correlation Energy        =      -0.1893872669564659 [Eh]
	 Total Energy              =     -76.1991653609862851 [Eh]

	 ================> DF-SCS-MP2 Energies <==================
	-----------------------------------------------------------
	 SCS Same-Spin Scale       =       0.3333333333333333 [-]
	 SCS Opposite-Spin Scale   =       1.2000000000000000 [-]
	 SCS Same-Spin Energy      =      -0.0161901648097166 [Eh]
	 SCS Opposite-Spin Energy  =      -0.1689801270327792 [Eh]
	 SCS Correlation Energy    =      -0.1851702918424958 [Eh]
	 SCS Total Energy          =     -76.1949483858723084 [Eh]
	-----------------------------------------------------------

  -Total Gradient:
     Atom            X                  Y                   Z
    ------   -----------------  -----------------  -----------------
       1        0.000001091624     0.000060072929     0.000000000000
       2        0.000000209591    -0.000029963709     0.000000000000
       3       -0.000001301215    -0.000030109220     0.000000000000

    Molecular point group: cs

    Geometry (in Angstrom), charge = 0, multiplicity = 1:

    O            0.000978601539     0.066556122324     0.000000000000
    H            0.755429558873    -0.540910345372     0.000000000000
    H           -0.770887182219    -0.518623749510     0.000000000000

*** Psi4 exiting successfully. Buy a developer a beer!
