                               Psi4 1.6 release

  ==> Input File <==

--------------------------------------------------------------------------
molecule {
0 1
O 0.000978601539 0.066556122324 0.0
H 0.755429558873 -0.540910345372 0.0
H -0.770887182219 -0.51862374951 0.0
}
memory 209GB
set_num_threads(51)
psi4_io.set_default_path("/scratch/liuchw/Psi4-water_3D")
set maxiter 500
set freeze_core True
set PROPERTIES_ORIGIN ["COM"]
set cubeprop_tasks ['esp']
set basis aug-cc-pVTZ
E, wfn = properties('mp2',properties=['dipole','GRID_ESP','WIBERG_LOWDIN_INDICES','MULLIKEN_CHARGES'],return_wfn=True)
cubeprop(wfn)
fchk(wfn, "water_3D-esp.fchk")
clean()
--------------------------------------------------------------------------

    Molecular point group: cs
  Charge       = 0
  Multiplicity = 1
  Basis Set: AUG-CC-PVTZ
    Blend: AUG-CC-PVTZ
  Basis Set: (AUG-CC-PVTZ AUX)
    Blend: AUG-CC-PVTZ-JKFIT

    Orbital Energies [Eh]
    ---------------------

    Doubly Occupied:

       1Ap   -20.569431     2Ap    -1.348166     3Ap    -0.710653
       4Ap    -0.583780     1App   -0.509586

  @DF-RHF Final Energy:   -76.05958658874329

   => Energetics <=

    Nuclear Repulsion Energy =              9.0878563559364540
    One-Electron Energy =                -122.8516538111479406
    Two-Electron Energy =                  37.7042108664681948
    Total Energy =                        -76.0595865887432865
  Basis Set: (AUG-CC-PVTZ AUX)
    Blend: AUG-CC-PVTZ-RI
    Molecular point group: c1

    Geometry (in Angstrom), charge = 0, multiplicity = 1:

       Center              X                  Y                   Z               Mass
    ------------   -----------------  -----------------  -----------------  -----------------
         O            0.000974489046     0.066737431983     0.000000000000    15.994914619570
         H            0.755425446380    -0.540729035713     0.000000000000     1.007825032230
         H           -0.770891294712    -0.518442439851     0.000000000000     1.007825032230

  Basis Set: AUG-CC-PVTZ
    Blend: AUG-CC-PVTZ
  Basis Set: (AUG-CC-PVTZ AUX)
    Blend: AUG-CC-PVTZ-JKFIT
	 Reference Energy          =     -76.0595865887432865 [Eh]
	 Singles Energy            =      -0.0000000000000000 [Eh]
	 Same-Spin Energy          =      -0.0653697897296790 [Eh]
	 Opposite-Spin Energy      =      -0.2038846786463114 [Eh]
	 Correlation Energy        =      -0.2692544683759904 [Eh]
	 Total Energy              =     -76.3288410571192770 [Eh]

	 ================> DF-SCS-MP2 Energies <==================
	-----------------------------------------------------------
	 SCS Same-Spin Scale       =       0.3333333333333333 [-]
	 SCS Opposite-Spin Scale   =       1.2000000000000000 [-]
	 SCS Same-Spin Energy      =      -0.0217899299098930 [Eh]
	 SCS Opposite-Spin Energy  =      -0.2446616143755737 [Eh]
	 SCS Correlation Energy    =      -0.2664515442854667 [Eh]
	 SCS Total Energy          =     -76.3260381330287601 [Eh]
	-----------------------------------------------------------

 Dipole X            :          0.0037821           -0.0144941           -0.0107120
 Dipole Y            :          0.2590107           -0.9926203           -0.7336095
 Dipole Z            :         -0.0000000            0.0000000           -0.0000000
 Magnitude           :                                                    0.7336877

  Mulliken Charges: (a.u.)
   Center  Symbol    Alpha    Beta     Spin     Total
       1     O     4.21976  4.21976  0.00000 -0.43952
       2     H     0.39012  0.39012  0.00000  0.21976
       3     H     0.39012  0.39012  0.00000  0.21976

   Total alpha =  5.00000, Total beta =  5.00000, Total charge =  0.00000

  Basis Set: AUG-CC-PVTZ
    Blend: AUG-CC-PVTZ
*** Psi4 exiting successfully. Buy a developer a beer!
