   * xtb version 6.5.0 (97a52f5) compiled by 'conda@d2599ee0d4f4' on 2022-05-15
          program call               : /home/liuchw/anaconda3/envs/xtbenv/bin/xtb --gfn 2 --chrg 0 --uhf 0 3_25_Index_0_GrowFragment_3-opt-2-3-147_preQMOPTprefit_xyzformat.xyz --opt --input xtb-opt-2-3-147_constr.txt

   ID    Z sym.   atoms
    1    6 C      1, 3-5, 7-11
    2    7 N      2, 15
    3    8 O      6
    4    1 H      12-14, 16-24
constraining angle 1 2 3 4 to  146.9173015°, actual value:  146.9173015°
constraining angle 11 1 2 3 to   53.0461897°, actual value:   53.0461897°
constraining angle 2 3 4 15 to  184.0198174°, actual value: -175.9801826°
constraining angle 1 2 5 13 to   29.9718310°, actual value:   29.9718310°
constraining angle 16 4 15 22 to   71.0235971°, actual value:   71.0235971°
constraining angle 17 4 15 22 to  186.0254844°, actual value: -173.9745156°
constraining angle 16 4 15 24 to  181.9837099°, actual value: -178.0162901°
constraining angle 17 4 15 24 to  296.9855972°, actual value:  -63.0144028°

          :  Hamiltonian                  GFN2-xTB          :
 * total energy  :   -35.2178256 Eh     change       -0.4855707E-09 Eh
 * total energy  :   -35.2438593 Eh     change       -0.2603369E-01 Eh
 * total energy  :   -35.2536184 Eh     change       -0.9759142E-02 Eh
 * total energy  :   -35.2608536 Eh     change       -0.7235180E-02 Eh
 * total energy  :   -35.2667153 Eh     change       -0.5861643E-02 Eh
 * total energy  :   -35.2712497 Eh     change       -0.4534451E-02 Eh
 * total energy  :   -35.2727663 Eh     change       -0.1516551E-02 Eh
 * total energy  :   -35.2747484 Eh     change       -0.1982136E-02 Eh
 * total energy  :   -35.2775666 Eh     change       -0.2818180E-02 Eh
 * total energy  :   -35.2790055 Eh     change       -0.1438896E-02 Eh
 * total energy  :   -35.2869805 Eh     change       -0.5954979E-04 Eh
 * total energy  :   -35.2870277 Eh     change       -0.4725579E-04 Eh
 * total energy  :   -35.2870449 Eh     change       -0.1719769E-04 Eh
 * total energy  :   -35.2870524 Eh     change       -0.7469688E-05 Eh
 * total energy  :   -35.2870565 Eh     change       -0.4085864E-05 Eh
 * total energy  :   -35.2870575 Eh     change       -0.1022169E-05 Eh
 * total energy  :   -35.2870581 Eh     change       -0.6079630E-06 Eh
 * total energy  :   -35.2870584 Eh     change       -0.2436755E-06 Eh
 * total energy  :   -35.2870586 Eh     change       -0.2268923E-06 Eh
   *** GEOMETRY OPTIMIZATION CONVERGED AFTER 28 ITERATIONS ***

 final structure:
================
24
 xtb: 6.5.0 (97a52f5)
C           -0.78115878841632       -0.34710866864364       -0.09319019093805
N            0.43269957463867       -0.67842741389391        0.56063865086804
C            1.58438259475271       -0.02582939490862        0.20296851944098
C            2.61161973807806        0.20781184036025        1.31180779638963
C            0.33204499793379       -1.35243669552267        1.83821034715818
O            1.76994691559160        0.43753322366366       -0.90361376658673
C           -1.90355234064049        0.01103156906136        0.64764020728852
C           -3.15236379309709        0.33347832195224       -1.37865644826688
C           -3.08080630499066        0.34519307056532        0.00354377174692
C           -2.03579386699280       -0.01955871978294       -2.11637695298439
C           -0.85682017773241       -0.36699286473926       -1.48208448192427
H            1.18067816863059       -2.02443368445762        1.96343533941721
H           -0.57949220082186       -1.94765014699702        1.84210017620535
H            0.30771588833508       -0.66210692320864        2.68731164950378
N            3.75468996357582        0.98352780456427        0.87064887296481
H            2.98759620014970       -0.73535100165922        1.72256040292984
H            2.13077135280999        0.74112061096331        2.13880343796456
H           -1.86130050572025        0.04615512569745        1.72559894622722
H           -3.94477363631778        0.62368845416850        0.58911715992814
H           -2.08248267634908       -0.03413270773037       -3.19501923289276
H            0.00978642011356       -0.64388461107155       -2.05809062399814
H            4.14036700441996        0.53852477991483        0.03918635403499
H           -4.07309882737585        0.59870006988401       -1.87611043974596
H            3.41933527942463        1.87814896181966        0.51676550526963

          :  Hamiltonian                  GFN2-xTB          :
         :: total energy             -35.287058598631 Eh    ::
         :: gradient norm              0.000455348940 Eh/a0 ::
         :: HOMO-LUMO gap              3.710640259555 eV    ::
         :: SCC energy               -35.809246179732 Eh    ::
         :: -> dispersion             -0.020793199207 Eh    ::
         :: repulsion energy           0.522087312763 Eh    ::

    * Orbital Energies and Occupations

         #    Occupation            Energy/Eh            Energy/eV
      -------------------------------------------------------------
         1        2.0000           -0.7043915             -19.1675
       ...           ...                  ...                  ...
        20        2.0000           -0.4961101             -13.4998
        21        2.0000           -0.4874019             -13.2629
        22        2.0000           -0.4838352             -13.1658
        23        2.0000           -0.4800486             -13.0628
        24        2.0000           -0.4781323             -13.0106
        25        2.0000           -0.4516841             -12.2910
        26        2.0000           -0.4392182             -11.9517
        27        2.0000           -0.4357670             -11.8578
        28        2.0000           -0.4215482             -11.4709
        29        2.0000           -0.4093738             -11.1396
        30        2.0000           -0.4051874             -11.0257
        31        2.0000           -0.3861332             -10.5072
        32        2.0000           -0.3694224             -10.0525 (HOMO)
        33                         -0.2330589              -6.3419 (LUMO)
        34                         -0.2258455              -6.1456
        35                         -0.2109708              -5.7408
        36                         -0.0953035              -2.5933
        37                         -0.0081938              -0.2230
        38                          0.0666303               1.8131
        39                          0.0769391               2.0936
        40                          0.1019709               2.7748
        41                          0.1175007               3.1974
        42                          0.1327804               3.6131
        43                          0.1356141               3.6902
       ...                                ...                  ...
        60                          0.6655329              18.1101
      -------------------------------------------------------------
                  HL-Gap            0.1363635 Eh            3.7106 eV

     #   Z          covCN         q      C6AA      α(0)
     1   6 C        2.925     0.070    26.439     8.432
     2   7 N        2.737    -0.103    23.267     7.164
     3   6 C        2.765     0.257    22.679     7.799
     4   6 C        3.733    -0.007    20.797     6.509
     5   6 C        3.698    -0.047    21.579     6.644
     6   8 O        0.858    -0.425    22.179     6.314
     7   6 C        2.922    -0.050    29.249     8.869
     8   6 C        2.919    -0.034    28.857     8.809
     9   6 C        2.921    -0.030    28.749     8.793
    10   6 C        2.921    -0.027    28.678     8.782
    11   6 C        2.922    -0.037    28.926     8.820
    12   1 H        0.925     0.055     2.258     2.350
    13   1 H        0.925     0.066     2.132     2.283
    14   1 H        0.924     0.045     2.386     2.416
    15   7 N        2.628    -0.335    28.619     7.945
    16   1 H        0.924     0.050     2.325     2.384
    17   1 H        0.924     0.048     2.343     2.394
    18   1 H        0.926     0.032     2.553     2.499
    19   1 H        0.926     0.033     2.542     2.493
    20   1 H        0.926     0.038     2.469     2.457
    21   1 H        0.926     0.064     2.157     2.296
    22   1 H        0.860     0.154     1.377     1.838
    23   1 H        0.926     0.034     2.532     2.488
    24   1 H        0.860     0.150     1.399     1.853

Wiberg/Mayer (AO) data.
largest (>0.10) Wiberg bond orders for each atom

     #   Z sym  total        # sym  WBO       # sym  WBO       # sym  WBO
 ---------------------------------------------------------------------------
     1   6 C    3.961 --    11 C    1.387     7 C    1.385     2 N    1.019
                             8 C    0.102
     2   7 N    3.487 --     3 C    1.183     1 C    1.019     5 C    1.002
                             6 O    0.168
     3   6 C    3.944 --     6 O    1.708     2 N    1.183     4 C    0.952
     4   6 C    3.991 --    15 N    1.040    16 H    0.955    17 H    0.954
                             3 C    0.952
     5   6 C    3.973 --     2 N    1.002    13 H    0.980    12 H    0.976
                            14 H    0.973
     6   8 O    2.024 --     3 C    1.708     2 N    0.168
     7   6 C    3.990 --     9 C    1.448     1 C    1.385    18 H    0.968
                            10 C    0.109
     8   6 C    3.990 --    10 C    1.437     9 C    1.435    23 H    0.971
                             1 C    0.102
     9   6 C    3.992 --     7 C    1.448     8 C    1.435    19 H    0.971
                            11 C    0.109
    10   6 C    3.992 --    11 C    1.446     8 C    1.437    20 H    0.971
                             7 C    0.109
    11   6 C    3.988 --    10 C    1.446     1 C    1.387    21 H    0.966
                             9 C    0.109
    12   1 H    0.996 --     5 C    0.976
    13   1 H    0.996 --     5 C    0.980
    14   1 H    0.998 --     5 C    0.973
    15   7 N    3.006 --     4 C    1.040    24 H    0.961    22 H    0.959
    16   1 H    0.997 --     4 C    0.955
    17   1 H    0.998 --     4 C    0.954
    18   1 H    0.999 --     7 C    0.968
    19   1 H    0.998 --     9 C    0.971
    20   1 H    0.998 --    10 C    0.971
    21   1 H    0.996 --    11 C    0.966
    22   1 H    0.976 --    15 N    0.959
    23   1 H    0.999 --     8 C    0.971
    24   1 H    0.977 --    15 N    0.961
 ---------------------------------------------------------------------------

molecular dipole:
                 x           y           z       tot (Debye)
 q only:       -0.601      -0.618       0.930
   full:       -0.839      -0.649       0.926       3.577

           -------------------------------------------------
          | TOTAL ENERGY              -35.287058598631 Eh   |
          | GRADIENT NORM               0.000455348940 Eh/α |
          | HOMO-LUMO GAP               3.710640259555 eV   |
           -------------------------------------------------

 * finished run on 2023/11/18 at 08:28:46.296
