   * xtb version 6.5.0 (97a52f5) compiled by 'conda@d2599ee0d4f4' on 2022-05-15
          program call               : /home/liuchw/anaconda3/envs/xtbenv/bin/xtb --gfn 2 --chrg 0 --uhf 0 3_25_Index_0_GrowFragment_3-opt-2-3-259_preQMOPTprefit_xyzformat.xyz --opt --input xtb-opt-2-3-259_constr.txt

   ID    Z sym.   atoms
    1    6 C      1, 3-5, 7-11
    2    7 N      2, 15
    3    8 O      6
    4    1 H      12-14, 16-24
constraining angle 1 2 3 4 to  258.9766271°, actual value: -101.0233729°
constraining angle 11 1 2 3 to   53.0634916°, actual value:   53.0634916°
constraining angle 2 3 4 15 to  183.9646800°, actual value: -176.0353200°
constraining angle 1 2 5 13 to   30.0003683°, actual value:   30.0003683°
constraining angle 16 4 15 22 to   71.0235236°, actual value:   71.0235236°
constraining angle 17 4 15 22 to  186.0143705°, actual value: -173.9856295°
constraining angle 16 4 15 24 to  181.9738380°, actual value: -178.0261620°
constraining angle 17 4 15 24 to  296.9646849°, actual value:  -63.0353151°

          :  Hamiltonian                  GFN2-xTB          :
 * total energy  :   -35.2245435 Eh     change       -0.1304699E-09 Eh
 * total energy  :   -35.2441602 Eh     change       -0.1961671E-01 Eh
 * total energy  :   -35.2516012 Eh     change       -0.7441025E-02 Eh
 * total energy  :   -35.2553213 Eh     change       -0.3720112E-02 Eh
 * total energy  :   -35.2524416 Eh     change        0.2879714E-02 Eh
 * total energy  :   -35.2604071 Eh     change       -0.7965445E-02 Eh
 * total energy  :   -35.2609823 Eh     change       -0.5752604E-03 Eh
 * total energy  :   -35.2633605 Eh     change       -0.2378158E-02 Eh
 * total energy  :   -35.2639588 Eh     change       -0.5982891E-03 Eh
 * total energy  :   -35.2644010 Eh     change       -0.4422615E-03 Eh
 * total energy  :   -35.2654153 Eh     change       -0.1318275E-04 Eh
 * total energy  :   -35.2654228 Eh     change       -0.7456647E-05 Eh
 * total energy  :   -35.2654270 Eh     change       -0.4166391E-05 Eh
 * total energy  :   -35.2654282 Eh     change       -0.1271853E-05 Eh
 * total energy  :   -35.2654298 Eh     change       -0.1598434E-05 Eh
 * total energy  :   -35.2654303 Eh     change       -0.5183591E-06 Eh
 * total energy  :   -35.2654306 Eh     change       -0.2492778E-06 Eh
 * total energy  :   -35.2654307 Eh     change       -0.9546336E-07 Eh
 * total energy  :   -35.2654307 Eh     change       -0.5435142E-07 Eh
   *** GEOMETRY OPTIMIZATION CONVERGED AFTER 28 ITERATIONS ***

 final structure:
================
24
 xtb: 6.5.0 (97a52f5)
C           -0.78035607037594       -0.27480723487541        0.18371674377627
N            0.29848206766018       -0.44926373486360        1.06821076190776
C            1.44668701680155        0.38952883984040        0.89583092297193
C            2.61237980333642       -0.26759233705928        0.18414825484820
C            0.03165290949406       -0.69629060213733        2.47700179797401
O            1.52625796935181        1.47867750909832        1.39629252101600
C           -2.08989609579196       -0.08607165154306        0.62501242789547
C           -2.89274320040037       -0.02511609261208       -1.64124600863474
C           -3.12958888146716        0.02732665267699       -0.28007638753462
C           -1.59316804492997       -0.18825739071937       -2.08992396236412
C           -0.55080880355526       -0.31376364717228       -1.19322808647547
H            0.83733446109687       -1.31799700251566        2.87048006645386
H           -0.91275159756228       -1.22100059717651        2.58260789015354
H           -0.01729084180064        0.22928580942810        3.06202553392708
N            3.80181177986397        0.55711695729722        0.09359993521287
H            2.33239079129789       -0.59382097126593       -0.82079436195703
H            2.85396115358474       -1.18113254210886        0.74005027919997
H           -2.31226013433627       -0.00440649460222        1.67698437167127
H           -4.13462962096624        0.17117542318055        0.08929494364276
H           -1.38634815708668       -0.22384669754968       -3.14950432652059
H            0.45056435419693       -0.44684973322423       -1.56999748997294
H            3.54716769637180        1.44573843071222       -0.33522533035323
H           -3.70702755148775        0.06719596375538       -2.34336425505517
H            4.07816699670407        0.83117114343612        1.03529976821692

          :  Hamiltonian                  GFN2-xTB          :
         :: total energy             -35.265430748497 Eh    ::
         :: gradient norm              0.000445327064 Eh/a0 ::
         :: HOMO-LUMO gap              2.644453449169 eV    ::
         :: SCC energy               -35.785117068306 Eh    ::
         :: -> dispersion             -0.020888191218 Eh    ::
         :: repulsion energy           0.519577156641 Eh    ::

    * Orbital Energies and Occupations

         #    Occupation            Energy/Eh            Energy/eV
      -------------------------------------------------------------
         1        2.0000           -0.7337111             -19.9653
       ...           ...                  ...                  ...
        20        2.0000           -0.4953224             -13.4784
        21        2.0000           -0.4883469             -13.2886
        22        2.0000           -0.4820987             -13.1186
        23        2.0000           -0.4796787             -13.0527
        24        2.0000           -0.4732302             -12.8772
        25        2.0000           -0.4612966             -12.5525
        26        2.0000           -0.4395668             -11.9612
        27        2.0000           -0.4335951             -11.7987
        28        2.0000           -0.4298362             -11.6964
        29        2.0000           -0.4185887             -11.3904
        30        2.0000           -0.4047636             -11.0142
        31        2.0000           -0.3834540             -10.4343
        32        2.0000           -0.3640983              -9.9076 (HOMO)
        33                         -0.2669164              -7.2632 (LUMO)
        34                         -0.2226984              -6.0599
        35                         -0.2168579              -5.9010
        36                         -0.0919599              -2.5024
        37                         -0.0109476              -0.2979
        38                          0.0547184               1.4890
        39                          0.0870153               2.3678
        40                          0.0916585               2.4942
        41                          0.1201623               3.2698
        42                          0.1277383               3.4759
        43                          0.1401754               3.8144
       ...                                ...                  ...
        60                          0.6680674              18.1790
      -------------------------------------------------------------
                  HL-Gap            0.0971819 Eh            2.6445 eV

     #   Z          covCN         q      C6AA      α(0)
     1   6 C        2.914     0.074    26.349     8.417
     2   7 N        2.734    -0.170    24.667     7.376
     3   6 C        2.772     0.286    22.149     7.708
     4   6 C        3.733    -0.013    20.892     6.524
     5   6 C        3.707    -0.030    21.251     6.589
     6   8 O        0.857    -0.355    20.805     6.115
     7   6 C        2.923    -0.052    29.304     8.877
     8   6 C        2.918    -0.040    28.994     8.830
     9   6 C        2.921    -0.029    28.726     8.789
    10   6 C        2.920    -0.028    28.709     8.787
    11   6 C        2.925    -0.055    29.361     8.886
    12   1 H        0.924     0.041     2.436     2.441
    13   1 H        0.925     0.059     2.206     2.323
    14   1 H        0.924     0.045     2.381     2.413
    15   7 N        2.628    -0.332    28.558     7.937
    16   1 H        0.924     0.071     2.076     2.253
    17   1 H        0.924     0.071     2.072     2.251
    18   1 H        0.926     0.034     2.530     2.487
    19   1 H        0.926     0.032     2.564     2.504
    20   1 H        0.926     0.032     2.561     2.502
    21   1 H        0.926     0.025     2.659     2.550
    22   1 H        0.860     0.153     1.384     1.843
    23   1 H        0.926     0.030     2.580     2.512
    24   1 H        0.860     0.151     1.394     1.850

Wiberg/Mayer (AO) data.
largest (>0.10) Wiberg bond orders for each atom

     #   Z sym  total        # sym  WBO       # sym  WBO       # sym  WBO
 ---------------------------------------------------------------------------
     1   6 C    3.965 --     7 C    1.369    11 C    1.361     2 N    1.057
     2   7 N    3.286 --     1 C    1.057     5 C    0.987     3 C    0.976
     3   6 C    3.917 --     6 O    1.858     2 N    0.976     4 C    0.975
     4   6 C    3.990 --    15 N    1.038     3 C    0.975    17 H    0.940
                            16 H    0.939
     5   6 C    3.974 --     2 N    0.987    12 H    0.982    14 H    0.977
                            13 H    0.975
     6   8 O    2.094 --     3 C    1.858
     7   6 C    3.989 --     9 C    1.447     1 C    1.369    18 H    0.965
                            10 C    0.105
     8   6 C    3.988 --     9 C    1.437    10 C    1.425    23 H    0.972
     9   6 C    3.992 --     7 C    1.447     8 C    1.437    19 H    0.971
                            11 C    0.107
    10   6 C    3.992 --    11 C    1.462     8 C    1.425    20 H    0.971
                             7 C    0.105
    11   6 C    3.990 --    10 C    1.462     1 C    1.361    21 H    0.963
                             9 C    0.107
    12   1 H    0.997 --     5 C    0.982
    13   1 H    0.996 --     5 C    0.975
    14   1 H    0.997 --     5 C    0.977
    15   7 N    3.007 --     4 C    1.038    24 H    0.961    22 H    0.960
    16   1 H    0.995 --     4 C    0.939
    17   1 H    0.995 --     4 C    0.940
    18   1 H    0.999 --     7 C    0.965
    19   1 H    0.998 --     9 C    0.971
    20   1 H    0.998 --    10 C    0.971
    21   1 H    0.999 --    11 C    0.963
    22   1 H    0.977 --    15 N    0.960
    23   1 H    0.999 --     8 C    0.972
    24   1 H    0.977 --    15 N    0.961
 ---------------------------------------------------------------------------

molecular dipole:
                 x           y           z       tot (Debye)
 q only:        0.015      -0.754       0.018
   full:       -0.275      -0.552       0.245       1.687

           -------------------------------------------------
          | TOTAL ENERGY              -35.265430748497 Eh   |
          | GRADIENT NORM               0.000445327064 Eh/α |
          | HOMO-LUMO GAP               2.644453449169 eV   |
           -------------------------------------------------

 * finished run on 2023/11/18 at 08:27:00.793
