   * xtb version 6.5.0 (97a52f5) compiled by 'conda@d2599ee0d4f4' on 2022-05-15
          program call               : /home/liuchw/anaconda3/envs/xtbenv/bin/xtb --gfn 2 --chrg 0 --uhf 0 3_25_Index_0_GrowFragment_3-opt-2-3-203_preQMOPTprefit_xyzformat.xyz --opt --input xtb-opt-2-3-203_constr.txt

   ID    Z sym.   atoms
    1    6 C      1, 3-5, 7-11
    2    7 N      2, 15
    3    8 O      6
    4    1 H      12-14, 16-24
constraining angle 1 2 3 4 to  203.0771314°, actual value: -156.9228686°
constraining angle 11 1 2 3 to   53.0817750°, actual value:   53.0817750°
constraining angle 2 3 4 15 to  183.9281499°, actual value: -176.0718501°
constraining angle 1 2 5 13 to   29.9632372°, actual value:   29.9632372°
constraining angle 16 4 15 22 to   71.0148854°, actual value:   71.0148854°
constraining angle 17 4 15 22 to  186.0218915°, actual value: -173.9781085°
constraining angle 16 4 15 24 to  181.9636532°, actual value: -178.0363468°
constraining angle 17 4 15 24 to  296.9706593°, actual value:  -63.0293407°

          :  Hamiltonian                  GFN2-xTB          :
 * total energy  :   -35.2318923 Eh     change       -0.7061374E-10 Eh
 * total energy  :   -35.2576611 Eh     change       -0.2576880E-01 Eh
 * total energy  :   -35.2668277 Eh     change       -0.9166651E-02 Eh
 * total energy  :   -35.2736651 Eh     change       -0.6837376E-02 Eh
 * total energy  :   -35.2794487 Eh     change       -0.5783602E-02 Eh
 * total energy  :   -35.2824046 Eh     change       -0.2955952E-02 Eh
 * total energy  :   -35.2824510 Eh     change       -0.4632511E-04 Eh
 * total energy  :   -35.2849476 Eh     change       -0.2496658E-02 Eh
 * total energy  :   -35.2853485 Eh     change       -0.4008264E-03 Eh
 * total energy  :   -35.2855694 Eh     change       -0.2209492E-03 Eh
 * total energy  :   -35.2857323 Eh     change       -0.1628583E-03 Eh
 * total energy  :   -35.2858051 Eh     change       -0.7284505E-04 Eh
 * total energy  :   -35.2858858 Eh     change       -0.8071849E-04 Eh
 * total energy  :   -35.2859540 Eh     change       -0.6820012E-04 Eh
 * total energy  :   -35.2859996 Eh     change       -0.4562032E-04 Eh
 * total energy  :   -35.2860277 Eh     change       -0.2808182E-04 Eh
 * total energy  :   -35.2860442 Eh     change       -0.1646240E-04 Eh
 * total energy  :   -35.2860516 Eh     change       -0.7430703E-05 Eh
 * total energy  :   -35.2860544 Eh     change       -0.2807922E-05 Eh
   *** GEOMETRY OPTIMIZATION CONVERGED AFTER 19 ITERATIONS ***

 final structure:
================
24
 xtb: 6.5.0 (97a52f5)
C           -0.83978143325630       -0.09677709456448        0.06231915500630
N            0.32554775636619       -0.24461610219466        0.86267775562349
C            1.45980673180788        0.41764245971193        0.50108221556383
C            2.79914249885524       -0.12731520082807        1.00199564177495
C            0.22417359369072       -1.17110672309922        1.97012507425692
O            1.43686238346139        1.35456435295473       -0.27390586662235
C           -2.05836402361644        0.22035239672891        0.64954248997018
C           -3.13042259144628        0.08297419787753       -1.49249829505271
C           -3.19839501058515        0.30937874239507       -0.12862487993953
C           -1.91641639064966       -0.23606411317388       -2.07716084257801
C           -0.77415860861696       -0.33589714449149       -1.30443852877188
H            1.18327824202655       -1.64078283899155        2.17178080228673
H           -0.48613937342100       -1.95698094382793        1.71184399029320
H           -0.11694164640148       -0.66629333179185        2.87807090409066
N            3.92543672144662        0.70865045459373        0.62900488899491
H            2.95619513550030       -1.12509825239741        0.57576122828771
H            2.82273119047732       -0.23861165259130        2.09019004734986
H           -2.11080530951611        0.40644334110220        1.71157051986621
H           -4.14187446978895        0.56119298707411        0.33250659216974
H           -1.85907003225627       -0.41737109692513       -3.14005667171839
H            0.17375374185583       -0.58253994609360       -1.75742887706582
H            3.85744125336425        0.90290188335829       -0.36943862879451
H           -4.02102728675511        0.15557566180309       -2.09844975208473
H            3.79901793745739        1.62677897337110        1.05072602709333

          :  Hamiltonian                  GFN2-xTB          :
         :: total energy             -35.286054429987 Eh    ::
         :: gradient norm              0.000724745315 Eh/a0 ::
         :: HOMO-LUMO gap              3.595054546453 eV    ::
         :: SCC energy               -35.809328612273 Eh    ::
         :: -> dispersion             -0.020810960527 Eh    ::
         :: repulsion energy           0.523182823465 Eh    ::

    * Orbital Energies and Occupations

         #    Occupation            Energy/Eh            Energy/eV
      -------------------------------------------------------------
         1        2.0000           -0.6998173             -19.0430
       ...           ...                  ...                  ...
        20        2.0000           -0.4959873             -13.4965
        21        2.0000           -0.4876621             -13.2700
        22        2.0000           -0.4857797             -13.2187
        23        2.0000           -0.4838210             -13.1654
        24        2.0000           -0.4797943             -13.0559
        25        2.0000           -0.4491758             -12.2227
        26        2.0000           -0.4404848             -11.9862
        27        2.0000           -0.4369658             -11.8904
        28        2.0000           -0.4193275             -11.4105
        29        2.0000           -0.4117847             -11.2052
        30        2.0000           -0.4057696             -11.0416
        31        2.0000           -0.3855319             -10.4909
        32        2.0000           -0.3690254             -10.0417 (HOMO)
        33                         -0.2369095              -6.4466 (LUMO)
        34                         -0.2295989              -6.2477
        35                         -0.2052817              -5.5860
        36                         -0.0988802              -2.6907
        37                         -0.0123579              -0.3363
        38                          0.0657711               1.7897
        39                          0.0805654               2.1923
        40                          0.1038904               2.8270
        41                          0.1167099               3.1758
        42                          0.1306459               3.5551
        43                          0.1467150               3.9923
       ...                                ...                  ...
        60                          0.6638454              18.0642
      -------------------------------------------------------------
                  HL-Gap            0.1321158 Eh            3.5951 eV

     #   Z          covCN         q      C6AA      α(0)
     1   6 C        2.930     0.075    26.323     8.414
     2   7 N        2.737    -0.104    23.285     7.167
     3   6 C        2.763     0.256    22.702     7.803
     4   6 C        3.732    -0.007    20.790     6.508
     5   6 C        3.696    -0.047    21.590     6.647
     6   8 O        0.859    -0.434    22.372     6.342
     7   6 C        2.922    -0.042    29.052     8.839
     8   6 C        2.920    -0.032    28.790     8.799
     9   6 C        2.920    -0.028    28.706     8.786
    10   6 C        2.921    -0.026    28.651     8.778
    11   6 C        2.922    -0.032    28.810     8.802
    12   1 H        0.925     0.057     2.234     2.337
    13   1 H        0.924     0.057     2.230     2.335
    14   1 H        0.924     0.052     2.291     2.367
    15   7 N        2.628    -0.337    28.666     7.952
    16   1 H        0.924     0.049     2.334     2.389
    17   1 H        0.924     0.044     2.396     2.421
    18   1 H        0.926     0.038     2.472     2.459
    19   1 H        0.926     0.037     2.490     2.468
    20   1 H        0.926     0.040     2.454     2.450
    21   1 H        0.926     0.044     2.402     2.424
    22   1 H        0.860     0.156     1.360     1.827
    23   1 H        0.926     0.037     2.491     2.468
    24   1 H        0.860     0.148     1.418     1.865

Wiberg/Mayer (AO) data.
largest (>0.10) Wiberg bond orders for each atom

     #   Z sym  total        # sym  WBO       # sym  WBO       # sym  WBO
 ---------------------------------------------------------------------------
     1   6 C    3.965 --     7 C    1.396    11 C    1.395     2 N    1.006
                             8 C    0.105
     2   7 N    3.487 --     3 C    1.207     1 C    1.006     5 C    0.994
                             6 O    0.177
     3   6 C    3.945 --     6 O    1.693     2 N    1.207     4 C    0.949
     4   6 C    3.991 --    15 N    1.039    17 H    0.962    16 H    0.953
                             3 C    0.949
     5   6 C    3.972 --     2 N    0.994    13 H    0.981    12 H    0.975
                            14 H    0.975
     6   8 O    2.011 --     3 C    1.693     2 N    0.177
     7   6 C    3.991 --     9 C    1.446     1 C    1.396    18 H    0.969
                            10 C    0.110
     8   6 C    3.991 --     9 C    1.438    10 C    1.436    23 H    0.971
                             1 C    0.105
     9   6 C    3.992 --     7 C    1.446     8 C    1.438    19 H    0.971
                            11 C    0.110
    10   6 C    3.992 --    11 C    1.447     8 C    1.436    20 H    0.970
                             7 C    0.110
    11   6 C    3.991 --    10 C    1.447     1 C    1.395    21 H    0.969
                             9 C    0.110
    12   1 H    0.996 --     5 C    0.975
    13   1 H    0.997 --     5 C    0.981
    14   1 H    0.997 --     5 C    0.975
    15   7 N    3.005 --     4 C    1.039    24 H    0.963    22 H    0.958
    16   1 H    0.997 --     4 C    0.953
    17   1 H    0.998 --     4 C    0.962
    18   1 H    0.999 --     7 C    0.969
    19   1 H    0.998 --     9 C    0.971
    20   1 H    0.998 --    10 C    0.970
    21   1 H    0.998 --    11 C    0.969
    22   1 H    0.976 --    15 N    0.958
    23   1 H    0.999 --     8 C    0.971
    24   1 H    0.978 --    15 N    0.963
 ---------------------------------------------------------------------------

molecular dipole:
                 x           y           z       tot (Debye)
 q only:       -0.623      -1.086       0.681
   full:       -0.870      -1.066       0.741       3.972

           -------------------------------------------------
          | TOTAL ENERGY              -35.286054429987 Eh   |
          | GRADIENT NORM               0.000724745315 Eh/α |
          | HOMO-LUMO GAP               3.595054546453 eV   |
           -------------------------------------------------

 * finished run on 2023/11/18 at 08:25:54.059
