                               Psi4 1.6 release

  ==> Input File <==

--------------------------------------------------------------------------
molecule {
0 1
 C   -0.816028   -0.228762   -0.039515
 N    0.386359   -0.461809    0.678634
 C    1.517388    0.208315    0.317397
 C    2.748953    0.008149    1.201464
 C    0.282659   -1.217250    1.907951
 O    1.575681    0.933027   -0.656317
 C   -1.986266    0.096665    0.637458
 C   -3.172575    0.197372   -1.446871
 C   -3.157661    0.306847   -0.067168
 C   -2.008088   -0.129157   -2.120923
 C   -0.834506   -0.350192   -1.423929
 H    1.186145   -1.804272    2.065813
 H   -0.554303   -1.909258    1.818811
 H    0.128547   -0.573772    2.779503
 N    3.874440    0.829663    0.796597
 H    3.071865   -1.039117    1.170468
 H    2.519393    0.237655    2.246928
 H   -1.982274    0.198783    1.712190
 H   -4.061025    0.563434    0.466513
 H   -2.013477   -0.220245   -3.196741
 H    0.071946   -0.604599   -1.948613
 H    4.024278    0.691051   -0.202000
 H   -4.087869    0.366584   -1.993807
 H    3.596410    1.807888    0.853351
}
memory 20GB
set_num_threads(5)
psi4_io.set_default_path("/scratch/liuchw/Psi4-3_25_Index_0_GrowFragment_3-farH_in17")
set freeze_core True
E, wfn = energy('wb97x-d/6-311+G*',return_wfn=True)
oeprop(wfn,"WIBERG_LOWDIN_INDICES")
clean()
--------------------------------------------------------------------------

    Molecular point group: c1

    Geometry (in Angstrom), charge = 0, multiplicity = 1:

       Center              X                  Y                   Z               Mass
    ------------   -----------------  -----------------  -----------------  -----------------
         C           -0.801817810567    -0.256031959507    -0.061258432973    12.000000000000
         N            0.400569189433    -0.489078959507     0.656890567027    14.003074004430
         C            1.531598189433     0.181045040493     0.295653567027    12.000000000000
         C            2.763163189433    -0.019120959507     1.179720567027    12.000000000000
         C            0.296869189433    -1.244519959507     1.886207567027    12.000000000000
         O            1.589891189433     0.905757040493    -0.678060432973    15.994914619570
         C           -1.972055810567     0.069395040493     0.615714567027    12.000000000000
         C           -3.158364810567     0.170102040493    -1.468614432973    12.000000000000
         C           -3.143450810567     0.279577040493    -0.088911432973    12.000000000000
         C           -1.993877810567    -0.156426959507    -2.142666432973    12.000000000000
         C           -0.820295810567    -0.377461959507    -1.445672432973    12.000000000000
         H            1.200355189433    -1.831541959507     2.044069567027     1.007825032230
         H           -0.540092810567    -1.936527959507     1.797067567027     1.007825032230
         H            0.142757189433    -0.601041959507     2.757759567027     1.007825032230
         N            3.888650189433     0.802393040493     0.774853567027    14.003074004430
         H            3.086075189433    -1.066386959507     1.148724567027     1.007825032230
         H            2.533603189433     0.210385040493     2.225184567027     1.007825032230
         H           -1.968063810567     0.171513040493     1.690446567027     1.007825032230
         H           -4.046814810567     0.536164040493     0.444769567027     1.007825032230
         H           -1.999266810567    -0.247514959507    -3.218484432973     1.007825032230
         H            0.086156189433    -0.631868959507    -1.970356432973     1.007825032230
         H            4.038488189433     0.663781040493    -0.223743432973     1.007825032230
         H           -4.073658810567     0.339314040493    -2.015550432973     1.007825032230
         H            3.610620189433     1.780618040493     0.831607567027     1.007825032230

  Charge       = 0
  Multiplicity = 1
  Basis Set: 6-311+G*
    Blend: 6-311+G*
  Basis Set: (6-311+G* AUX)
    Blend: HEAVY-AUG-CC-PVTZ-JKFIT

    Orbital Energies [Eh]
    ---------------------

    Doubly Occupied:

       1A    -19.217786     2A    -14.478087     3A    -14.411751
       4A    -10.390550     5A    -10.333271     6A    -10.332211
       7A    -10.322147     8A    -10.294313     9A    -10.292599
      10A    -10.290002    11A    -10.288373    12A    -10.288214
      13A     -1.157568    14A     -1.064469    15A     -0.991155
      16A     -0.965106    17A     -0.864869    18A     -0.859264
      19A     -0.825961    20A     -0.794430    21A     -0.721572
      22A     -0.710203    23A     -0.658274    24A     -0.616266
      25A     -0.603221    26A     -0.599179    27A     -0.578310
      28A     -0.569416    29A     -0.544334    30A     -0.537739
      31A     -0.519107    32A     -0.516015    33A     -0.502204
      34A     -0.494486    35A     -0.489865    36A     -0.468591
      37A     -0.451786    38A     -0.447430    39A     -0.437708
      40A     -0.370731    41A     -0.355518    42A     -0.336966
      43A     -0.330739    44A     -0.309447

  @DF-RKS Final Energy:  -534.85920552037942

   => Energetics <=

    Nuclear Repulsion Energy =            687.0891856068981269
    One-Electron Energy =               -2087.1837143604611811
    Two-Electron Energy =                 917.4665672875235032
    DFT Exchange-Correlation Energy =     -52.2167113373072453
    Empirical Dispersion Energy =          -0.0145327170325636
    VV10 Nonlocal Energy =                  0.0000000000000000
    Total Energy =                       -534.8592055203794189
 Dipole X            :         -2.7781329            1.9358915           -0.8422414
 Dipole Y            :          1.7010441           -2.4462664           -0.7452223
 Dipole Z            :         -4.4283114            5.1594416            0.7311301
 Magnitude           :                                                    1.3413717
*** Psi4 exiting successfully. Buy a developer a beer!
