   * xtb version 6.5.0 (97a52f5) compiled by 'conda@d2599ee0d4f4' on 2022-05-15
          program call               : /home/liuchw/anaconda3/envs/xtbenv/bin/xtb --gfn 2 --chrg 0 --uhf 0 3_25_Index_0_GrowFragment_3-opt-2-3-091_preQMOPTprefit_xyzformat.xyz --opt --input xtb-opt-2-3-091_constr.txt

   ID    Z sym.   atoms
    1    6 C      1, 3-5, 7-11
    2    7 N      2, 15
    3    8 O      6
    4    1 H      12-14, 16-24
constraining angle 1 2 3 4 to   91.0131317°, actual value:   91.0131317°
constraining angle 11 1 2 3 to   53.0469198°, actual value:   53.0469198°
constraining angle 2 3 4 15 to  184.0100853°, actual value: -175.9899147°
constraining angle 1 2 5 13 to   29.9908317°, actual value:   29.9908317°
constraining angle 16 4 15 22 to   71.0229873°, actual value:   71.0229873°
constraining angle 17 4 15 22 to  186.0287580°, actual value: -173.9712420°
constraining angle 16 4 15 24 to  181.9795280°, actual value: -178.0204720°
constraining angle 17 4 15 24 to  296.9852986°, actual value:  -63.0147014°

          :  Hamiltonian                  GFN2-xTB          :
 * total energy  :   -35.2454127 Eh     change       -0.1002931E-09 Eh
 * total energy  :   -35.2574376 Eh     change       -0.1202491E-01 Eh
 * total energy  :   -35.2608195 Eh     change       -0.3381896E-02 Eh
 * total energy  :   -35.2624703 Eh     change       -0.1650863E-02 Eh
 * total energy  :   -35.2640642 Eh     change       -0.1593837E-02 Eh
 * total energy  :   -35.2653649 Eh     change       -0.1300759E-02 Eh
 * total energy  :   -35.2663818 Eh     change       -0.1016908E-02 Eh
 * total energy  :   -35.2673061 Eh     change       -0.9242667E-03 Eh
 * total energy  :   -35.2678229 Eh     change       -0.5167606E-03 Eh
 * total energy  :   -35.2680842 Eh     change       -0.2613857E-03 Eh
 * total energy  :   -35.2684060 Eh     change       -0.3217558E-03 Eh
 * total energy  :   -35.2685523 Eh     change       -0.1462962E-03 Eh
 * total energy  :   -35.2686686 Eh     change       -0.1163249E-03 Eh
 * total energy  :   -35.2687434 Eh     change       -0.7474436E-04 Eh
 * total energy  :   -35.2687611 Eh     change       -0.1772394E-04 Eh
 * total energy  :   -35.2687783 Eh     change       -0.1725148E-04 Eh
 * total energy  :   -35.2687833 Eh     change       -0.4995688E-05 Eh
 * total energy  :   -35.2687869 Eh     change       -0.3598487E-05 Eh
 * total energy  :   -35.2687892 Eh     change       -0.2249105E-05 Eh
   *** GEOMETRY OPTIMIZATION CONVERGED AFTER 19 ITERATIONS ***

 final structure:
================
24
 xtb: 6.5.0 (97a52f5)
C           -0.69369259031054       -0.27944519825184        0.26888106059838
N            0.41903766706034       -0.75699468593529        1.04248593907188
C            1.66494234867228       -0.34164001691765        0.53036553250461
C            2.12062455418201        0.97511830549492        1.13348477864705
C            0.31643956812541       -2.20721051487527        1.23503390281360
O            2.40710525456106       -1.04432050338646       -0.11382008870646
C           -1.73174365774799        0.36976865972281        0.92168186163281
C           -2.89680178137608        0.59455979137163       -1.16367204709194
C           -2.83270702626113        0.80299292005591        0.20388589702692
C           -1.85821413970237       -0.04974937879420       -1.81455298653802
C           -0.75814603429383       -0.49253021032076       -1.10186703084610
H            1.31192399170888       -2.62802945573472        1.35295764425077
H           -0.19258578282089       -2.70964948510663        0.40891871919766
H           -0.25914589949683       -2.37673711478254        2.14656918593852
N            3.35299480919702        1.50643097650871        0.58308962784234
H            2.27390074449111        0.78860486876960        2.20282535801338
H            1.33433273256379        1.73415512811127        1.07106909924886
H           -1.66638478518512        0.52710562380542        1.98706722771385
H           -3.64175698043707        1.30546835763954        0.71294905024876
H           -1.90422660968376       -0.21140415328922       -2.88139948820682
H            0.05526460817786       -0.99645686158484       -1.60450166270794
H            4.03532064808521        0.74874399105976        0.56210737201924
H           -3.75583975903631        0.93418553932831       -1.72261469386002
H            3.20935010952646        1.71403442711147       -0.40375123881147

          :  Hamiltonian                  GFN2-xTB          :
         :: total energy             -35.268789180646 Eh    ::
         :: gradient norm              0.000876719196 Eh/a0 ::
         :: HOMO-LUMO gap              3.321539452908 eV    ::
         :: SCC energy               -35.785732221013 Eh    ::
         :: -> dispersion             -0.020987456992 Eh    ::
         :: repulsion energy           0.516688470603 Eh    ::

    * Orbital Energies and Occupations

         #    Occupation            Energy/Eh            Energy/eV
      -------------------------------------------------------------
         1        2.0000           -0.7167565             -19.5039
       ...           ...                  ...                  ...
        20        2.0000           -0.4937539             -13.4357
        21        2.0000           -0.4912039             -13.3663
        22        2.0000           -0.4882635             -13.2863
        23        2.0000           -0.4837121             -13.1625
        24        2.0000           -0.4738225             -12.8934
        25        2.0000           -0.4525220             -12.3138
        26        2.0000           -0.4444266             -12.0935
        27        2.0000           -0.4388270             -11.9411
        28        2.0000           -0.4271899             -11.6244
        29        2.0000           -0.4172516             -11.3540
        30        2.0000           -0.4110384             -11.1849
        31        2.0000           -0.3847800             -10.4704
        32        2.0000           -0.3730292             -10.1506 (HOMO)
        33                         -0.2509649              -6.8291 (LUMO)
        34                         -0.2360750              -6.4239
        35                         -0.2320218              -6.3136
        36                         -0.1066175              -2.9012
        37                          0.0051234               0.1394
        38                          0.0655990               1.7850
        39                          0.0865072               2.3540
        40                          0.1150123               3.1296
        41                          0.1242744               3.3817
        42                          0.1413908               3.8474
        43                          0.1454519               3.9579
       ...                                ...                  ...
        60                          0.6534104              17.7802
      -------------------------------------------------------------
                  HL-Gap            0.1220643 Eh            3.3215 eV

     #   Z          covCN         q      C6AA      α(0)
     1   6 C        2.947     0.073    26.359     8.421
     2   7 N        2.734    -0.187    25.052     7.434
     3   6 C        2.780     0.276    22.333     7.740
     4   6 C        3.735    -0.011    20.856     6.518
     5   6 C        3.716    -0.025    21.151     6.570
     6   8 O        0.857    -0.393    21.542     6.223
     7   6 C        2.922    -0.042    29.041     8.837
     8   6 C        2.920    -0.031    28.778     8.797
     9   6 C        2.920    -0.028    28.700     8.785
    10   6 C        2.920    -0.029    28.713     8.787
    11   6 C        2.921    -0.043    29.056     8.840
    12   1 H        0.925     0.058     2.223     2.331
    13   1 H        0.924     0.038     2.479     2.462
    14   1 H        0.924     0.045     2.377     2.411
    15   7 N        2.628    -0.334    28.598     7.942
    16   1 H        0.924     0.071     2.075     2.253
    17   1 H        0.924     0.054     2.271     2.357
    18   1 H        0.926     0.047     2.361     2.403
    19   1 H        0.926     0.039     2.459     2.452
    20   1 H        0.926     0.038     2.471     2.458
    21   1 H        0.926     0.044     2.398     2.422
    22   1 H        0.860     0.156     1.359     1.826
    23   1 H        0.926     0.038     2.477     2.461
    24   1 H        0.860     0.144     1.440     1.880

Wiberg/Mayer (AO) data.
largest (>0.10) Wiberg bond orders for each atom

     #   Z sym  total        # sym  WBO       # sym  WBO       # sym  WBO
 ---------------------------------------------------------------------------
     1   6 C    3.967 --     7 C    1.407    11 C    1.404     2 N    0.966
                             8 C    0.107
     2   7 N    3.234 --     3 C    1.070     5 C    0.977     1 C    0.966
                             6 O    0.122
     3   6 C    3.929 --     6 O    1.790     2 N    1.070     4 C    0.966
     4   6 C    3.990 --    15 N    1.038     3 C    0.966    17 H    0.959
                            16 H    0.939
     5   6 C    3.975 --    12 H    0.981    14 H    0.981    13 H    0.980
                             2 N    0.977
     6   8 O    2.059 --     3 C    1.790     2 N    0.122
     7   6 C    3.991 --     9 C    1.442     1 C    1.407    18 H    0.969
                            10 C    0.111
     8   6 C    3.990 --     9 C    1.439    10 C    1.439    23 H    0.971
                             1 C    0.107
     9   6 C    3.991 --     7 C    1.442     8 C    1.439    19 H    0.970
                            11 C    0.111
    10   6 C    3.992 --    11 C    1.443     8 C    1.439    20 H    0.970
                             7 C    0.111
    11   6 C    3.992 --    10 C    1.443     1 C    1.404    21 H    0.968
                             9 C    0.111
    12   1 H    0.996 --     5 C    0.981
    13   1 H    0.998 --     5 C    0.980
    14   1 H    0.998 --     5 C    0.981
    15   7 N    3.007 --     4 C    1.038    24 H    0.964    22 H    0.958
    16   1 H    0.995 --     4 C    0.939
    17   1 H    0.997 --     4 C    0.959
    18   1 H    0.998 --     7 C    0.969
    19   1 H    0.998 --     9 C    0.970
    20   1 H    0.998 --    10 C    0.970
    21   1 H    0.998 --    11 C    0.968
    22   1 H    0.975 --    15 N    0.958
    23   1 H    0.998 --     8 C    0.971
    24   1 H    0.979 --    15 N    0.964
 ---------------------------------------------------------------------------

molecular dipole:
                 x           y           z       tot (Debye)
 q only:       -0.922       0.295       0.336
   full:       -1.077      -0.031       0.027       2.738

           -------------------------------------------------
          | TOTAL ENERGY              -35.268789180646 Eh   |
          | GRADIENT NORM               0.000876719196 Eh/α |
          | HOMO-LUMO GAP               3.321539452908 eV   |
           -------------------------------------------------

 * finished run on 2023/11/18 at 08:29:56.035
