                               Psi4 1.6 release

  ==> Input File <==

--------------------------------------------------------------------------
molecule {
0 1
 C   -0.626074   -0.327574    0.258689
 N    0.483747   -0.916609    0.915757
 C    1.758855   -0.465834    0.748808
 C    1.901259    1.045155    0.566050
 C    0.284525   -2.286573    1.363075
 O    2.735784   -1.172603    0.905283
 C   -1.753035    0.023809    0.991091
 C   -2.846078    0.731852   -1.024400
 C   -2.858323    0.552372    0.348385
 C   -1.726813    0.373321   -1.757369
 C   -0.621687   -0.162990   -1.122273
 H    1.249475   -2.791649    1.351115
 H   -0.415693   -2.805345    0.708123
 H   -0.110924   -2.293523    2.381063
 N    3.262704    1.470939    0.301904
 H    1.566916    1.523720    1.494118
 H    1.253225    1.427602   -0.226513
 H   -1.756020   -0.115875    2.061347
 H   -3.730904    0.826382    0.922226
 H   -1.717324    0.502233   -2.829415
 H    0.249011   -0.458437   -1.689982
 H    3.867767    1.024582    0.990776
 H   -3.708659    1.146004   -1.523952
 H    3.568256    1.056046   -0.576713
}
memory 20GB
set_num_threads(5)
psi4_io.set_default_path("/scratch/liuchw/Psi4-3_25_Index_0_GrowFragment_3-farH_in17")
set freeze_core True
E, wfn = energy('wb97x-d/6-311+G*',return_wfn=True)
oeprop(wfn,"WIBERG_LOWDIN_INDICES")
clean()
--------------------------------------------------------------------------

    Molecular point group: c1

    Geometry (in Angstrom), charge = 0, multiplicity = 1:

       Center              X                  Y                   Z               Mass
    ------------   -----------------  -----------------  -----------------  -----------------
         C           -0.739969037558    -0.216926708112     0.020523565622    12.000000000000
         N            0.369851962442    -0.805961708112     0.677591565622    14.003074004430
         C            1.644959962442    -0.355186708112     0.510642565622    12.000000000000
         C            1.787363962442     1.155802291888     0.327884565622    12.000000000000
         C            0.170629962442    -2.175925708112     1.124909565622    12.000000000000
         O            2.621888962442    -1.061955708112     0.667117565622    15.994914619570
         C           -1.866930037558     0.134456291888     0.752925565622    12.000000000000
         C           -2.959973037558     0.842499291888    -1.262565434378    12.000000000000
         C           -2.972218037558     0.663019291888     0.110219565622    12.000000000000
         C           -1.840708037558     0.483968291888    -1.995534434378    12.000000000000
         C           -0.735582037558    -0.052342708112    -1.360438434378    12.000000000000
         H            1.135579962442    -2.681001708112     1.112949565622     1.007825032230
         H           -0.529588037558    -2.694697708112     0.469957565622     1.007825032230
         H           -0.224819037558    -2.182875708112     2.142897565622     1.007825032230
         N            3.148808962442     1.581586291888     0.063738565622    14.003074004430
         H            1.453020962442     1.634367291888     1.255952565622     1.007825032230
         H            1.139329962442     1.538249291888    -0.464678434378     1.007825032230
         H           -1.869915037558    -0.005227708112     1.823181565622     1.007825032230
         H           -3.844799037558     0.937029291888     0.684060565622     1.007825032230
         H           -1.831219037558     0.612880291888    -3.067580434378     1.007825032230
         H            0.135115962442    -0.347789708112    -1.928147434378     1.007825032230
         H            3.753871962442     1.135229291888     0.752610565622     1.007825032230
         H           -3.822554037558     1.256651291888    -1.762117434378     1.007825032230
         H            3.454360962442     1.166693291888    -0.814878434378     1.007825032230

  Charge       = 0
  Multiplicity = 1
  Basis Set: 6-311+G*
    Blend: 6-311+G*
  Basis Set: (6-311+G* AUX)
    Blend: HEAVY-AUG-CC-PVTZ-JKFIT

    Orbital Energies [Eh]
    ---------------------

    Doubly Occupied:

       1A    -19.220636     2A    -14.470447     3A    -14.407944
       4A    -10.387878     5A    -10.343137     6A    -10.313551
       7A    -10.312355     8A    -10.305195     9A    -10.304655
      10A    -10.304579    11A    -10.303608    12A    -10.301949
      13A     -1.156804    14A     -1.063218    15A     -0.986347
      16A     -0.974746    17A     -0.871813    18A     -0.865507
      19A     -0.834523    20A     -0.767657    21A     -0.733992
      22A     -0.723777    23A     -0.664571    24A     -0.620551
      25A     -0.603085    26A     -0.593163    27A     -0.575798
      28A     -0.567792    29A     -0.549360    30A     -0.536357
      31A     -0.528208    32A     -0.513406    33A     -0.499400
      34A     -0.491043    35A     -0.485545    36A     -0.475778
      37A     -0.456773    38A     -0.451265    39A     -0.439390
      40A     -0.369721    41A     -0.351835    42A     -0.351287
      43A     -0.331339    44A     -0.320396

  @DF-RKS Final Energy:  -534.85933506212677

   => Energetics <=

    Nuclear Repulsion Energy =            690.5054355159173838
    One-Electron Energy =               -2093.8185782342229686
    Two-Electron Energy =                 920.6838923169415239
    DFT Exchange-Correlation Energy =     -52.2152191728933417
    Empirical Dispersion Energy =          -0.0148654878692550
    VV10 Nonlocal Energy =                  0.0000000000000000
    Total Energy =                       -534.8593350621267746
 Dipole X            :         -0.5264890           -0.9834783           -1.5099673
 Dipole Y            :         -0.5209186            0.3390465           -0.1818721
 Dipole Z            :         -0.4405770            0.1924909           -0.2480861
 Magnitude           :                                                    1.5409820
*** Psi4 exiting successfully. Buy a developer a beer!
