   * xtb version 6.5.0 (97a52f5) compiled by 'conda@d2599ee0d4f4' on 2022-05-15
          program call               : /home/liuchw/anaconda3/envs/xtbenv/bin/xtb --gfn 2 --chrg 0 --uhf 0 3_25_Index_0_GrowFragment_3-opt-2-3-175_preQMOPTprefit_xyzformat.xyz --opt --input xtb-opt-2-3-175_constr.txt

   ID    Z sym.   atoms
    1    6 C      1, 3-5, 7-11
    2    7 N      2, 15
    3    8 O      6
    4    1 H      12-14, 16-24
constraining angle 1 2 3 4 to  174.8700777°, actual value:  174.8700777°
constraining angle 11 1 2 3 to   53.0631948°, actual value:   53.0631948°
constraining angle 2 3 4 15 to  184.0552362°, actual value: -175.9447638°
constraining angle 1 2 5 13 to   29.9710835°, actual value:   29.9710835°
constraining angle 16 4 15 22 to   71.0223386°, actual value:   71.0223386°
constraining angle 17 4 15 22 to  186.0302671°, actual value: -173.9697329°
constraining angle 16 4 15 24 to  181.9775447°, actual value: -178.0224553°
constraining angle 17 4 15 24 to  296.9854732°, actual value:  -63.0145268°

          :  Hamiltonian                  GFN2-xTB          :
 * total energy  :   -35.2390471 Eh     change       -0.1132463E-09 Eh
 * total energy  :   -35.2629485 Eh     change       -0.2390140E-01 Eh
 * total energy  :   -35.2722701 Eh     change       -0.9321564E-02 Eh
 * total energy  :   -35.2782876 Eh     change       -0.6017495E-02 Eh
 * total energy  :   -35.2831178 Eh     change       -0.4830221E-02 Eh
 * total energy  :   -35.2858141 Eh     change       -0.2696291E-02 Eh
 * total energy  :   -35.2875556 Eh     change       -0.1741484E-02 Eh
 * total energy  :   -35.2871519 Eh     change        0.4036808E-03 Eh
 * total energy  :   -35.2886008 Eh     change       -0.1448922E-02 Eh
 * total energy  :   -35.2888688 Eh     change       -0.2679615E-03 Eh
 * total energy  :   -35.2895822 Eh     change       -0.3817098E-03 Eh
 * total energy  :   -35.2896964 Eh     change       -0.1141629E-03 Eh
 * total energy  :   -35.2900272 Eh     change       -0.3308436E-03 Eh
 * total energy  :   -35.2901573 Eh     change       -0.1301053E-03 Eh
 * total energy  :   -35.2901998 Eh     change       -0.4247036E-04 Eh
 * total energy  :   -35.2902420 Eh     change       -0.4215622E-04 Eh
 * total energy  :   -35.2902519 Eh     change       -0.9895641E-05 Eh
 * total energy  :   -35.2902574 Eh     change       -0.5509102E-05 Eh
 * total energy  :   -35.2902583 Eh     change       -0.9318857E-06 Eh
   *** GEOMETRY OPTIMIZATION CONVERGED AFTER 20 ITERATIONS ***

 final structure:
================
24
 xtb: 6.5.0 (97a52f5)
C           -0.81602768464355       -0.22876180427659       -0.03951452851894
N            0.38635858908233       -0.46180855160050        0.67863400048648
C            1.51738760084626        0.20831489968495        0.31739667172170
C            2.74895297506730        0.00814895167020        1.20146432034236
C            0.28265889820633       -1.21725018711734        1.90795144576139
O            1.57568076623481        0.93302721743755       -0.65631714450915
C           -1.98626559010515        0.09666484865674        0.63745785764024
C           -3.17257519875802        0.19737152688068       -1.44687069937079
C           -3.15766125740426        0.30684686233463       -0.06716817298690
C           -2.00808813205162       -0.12915672817571       -2.12092289041354
C           -0.83450630714264       -0.35019157783197       -1.42392879435857
H            1.18614507785181       -1.80427246216994        2.06581261720542
H           -0.55430332004943       -1.90925797037754        1.81881132859170
H            0.12854717368660       -0.57377196598257        2.77950306014239
N            3.87443952616034        0.82966347463848        0.79659719521760
H            3.07186533479200       -1.03911704569971        1.17046842662657
H            2.51939278826181        0.23765474735528        2.24692811910934
H           -1.98227402767940        0.19878304797066        1.71218958193076
H           -4.06102515909194        0.56343372197096        0.46651310758317
H           -2.01347673641461       -0.22024502254326       -3.19674131905839
H            0.07194637137117       -0.60459859256642       -1.94861307969186
H            4.02427841273351        0.69105099954379       -0.20200009138989
H           -4.08786927540614        0.36658412604886       -1.99380720167105
H            3.59641015445309        1.80788848414919        0.85335120960981

          :  Hamiltonian                  GFN2-xTB          :
         :: total energy             -35.290258309994 Eh    ::
         :: gradient norm              0.000872372094 Eh/a0 ::
         :: HOMO-LUMO gap              3.670695859061 eV    ::
         :: SCC energy               -35.813360652980 Eh    ::
         :: -> dispersion             -0.020774777870 Eh    ::
         :: repulsion energy           0.523042720612 Eh    ::

    * Orbital Energies and Occupations

         #    Occupation            Energy/Eh            Energy/eV
      -------------------------------------------------------------
         1        2.0000           -0.7007690             -19.0689
       ...           ...                  ...                  ...
        20        2.0000           -0.4967414             -13.5170
        21        2.0000           -0.4867120             -13.2441
        22        2.0000           -0.4847990             -13.1921
        23        2.0000           -0.4814128             -13.0999
        24        2.0000           -0.4788695             -13.0307
        25        2.0000           -0.4501015             -12.2479
        26        2.0000           -0.4393277             -11.9547
        27        2.0000           -0.4365930             -11.8803
        28        2.0000           -0.4201229             -11.4321
        29        2.0000           -0.4105750             -11.1723
        30        2.0000           -0.4044871             -11.0067
        31        2.0000           -0.3851434             -10.4803
        32        2.0000           -0.3695418             -10.0557 (HOMO)
        33                         -0.2346463              -6.3850 (LUMO)
        34                         -0.2273594              -6.1868
        35                         -0.2022248              -5.5028
        36                         -0.0961572              -2.6166
        37                         -0.0112086              -0.3050
        38                          0.0669810               1.8226
        39                          0.0763512               2.0776
        40                          0.1039954               2.8299
        41                          0.1168947               3.1809
        42                          0.1321791               3.5968
        43                          0.1427792               3.8852
       ...                                ...                  ...
        60                          0.6661200              18.1260
      -------------------------------------------------------------
                  HL-Gap            0.1348956 Eh            3.6707 eV

     #   Z          covCN         q      C6AA      α(0)
     1   6 C        2.927     0.072    26.393     8.425
     2   7 N        2.737    -0.099    23.180     7.151
     3   6 C        2.765     0.255    22.706     7.804
     4   6 C        3.733    -0.007    20.795     6.509
     5   6 C        3.696    -0.047    21.597     6.648
     6   8 O        0.858    -0.435    22.400     6.345
     7   6 C        2.922    -0.047    29.161     8.856
     8   6 C        2.919    -0.033    28.818     8.803
     9   6 C        2.920    -0.029    28.731     8.790
    10   6 C        2.921    -0.026    28.660     8.779
    11   6 C        2.922    -0.032    28.799     8.801
    12   1 H        0.925     0.057     2.234     2.337
    13   1 H        0.925     0.063     2.159     2.298
    14   1 H        0.924     0.048     2.339     2.392
    15   7 N        2.628    -0.336    28.648     7.949
    16   1 H        0.924     0.048     2.348     2.396
    17   1 H        0.924     0.046     2.368     2.406
    18   1 H        0.926     0.035     2.522     2.484
    19   1 H        0.926     0.035     2.519     2.482
    20   1 H        0.926     0.039     2.457     2.451
    21   1 H        0.926     0.054     2.268     2.355
    22   1 H        0.860     0.155     1.368     1.832
    23   1 H        0.926     0.035     2.511     2.478
    24   1 H        0.860     0.149     1.411     1.861

Wiberg/Mayer (AO) data.
largest (>0.10) Wiberg bond orders for each atom

     #   Z sym  total        # sym  WBO       # sym  WBO       # sym  WBO
 ---------------------------------------------------------------------------
     1   6 C    3.963 --    11 C    1.391     7 C    1.391     2 N    1.014
                             8 C    0.103
     2   7 N    3.503 --     3 C    1.206     1 C    1.014     5 C    0.999
                             6 O    0.178
     3   6 C    3.946 --     6 O    1.691     2 N    1.206     4 C    0.951
     4   6 C    3.991 --    15 N    1.039    17 H    0.960    16 H    0.953
                             3 C    0.951
     5   6 C    3.972 --     2 N    0.999    13 H    0.981    12 H    0.975
                            14 H    0.974
     6   8 O    2.010 --     3 C    1.691     2 N    0.178
     7   6 C    3.990 --     9 C    1.446     1 C    1.391    18 H    0.968
                            10 C    0.109
     8   6 C    3.991 --     9 C    1.437    10 C    1.436    23 H    0.971
                             1 C    0.103
     9   6 C    3.992 --     7 C    1.446     8 C    1.437    19 H    0.971
                            11 C    0.110
    10   6 C    3.992 --    11 C    1.447     8 C    1.436    20 H    0.970
                             7 C    0.109
    11   6 C    3.990 --    10 C    1.447     1 C    1.391    21 H    0.968
                             9 C    0.110
    12   1 H    0.996 --     5 C    0.975
    13   1 H    0.996 --     5 C    0.981
    14   1 H    0.997 --     5 C    0.974
    15   7 N    3.004 --     4 C    1.039    24 H    0.962    22 H    0.958
    16   1 H    0.997 --     4 C    0.953
    17   1 H    0.998 --     4 C    0.960
    18   1 H    0.999 --     7 C    0.968
    19   1 H    0.998 --     9 C    0.971
    20   1 H    0.998 --    10 C    0.970
    21   1 H    0.997 --    11 C    0.968
    22   1 H    0.976 --    15 N    0.958
    23   1 H    0.999 --     8 C    0.971
    24   1 H    0.978 --    15 N    0.962
 ---------------------------------------------------------------------------

molecular dipole:
                 x           y           z       tot (Debye)
 q only:       -0.625      -0.883       0.847
   full:       -0.882      -0.869       0.870       3.847

           -------------------------------------------------
          | TOTAL ENERGY              -35.290258309994 Eh   |
          | GRADIENT NORM               0.000872372094 Eh/α |
          | HOMO-LUMO GAP               3.670695859061 eV   |
           -------------------------------------------------

 * finished run on 2023/11/18 at 08:25:32.115
