   * xtb version 6.5.0 (97a52f5) compiled by 'conda@d2599ee0d4f4' on 2022-05-15
          program call               : /home/liuchw/anaconda3/envs/xtbenv/bin/xtb --gfn 2 --chrg 0 --uhf 0 3_25_Index_0_GrowFragment_3-opt-2-3-035_preQMOPTprefit_xyzformat.xyz --opt --input xtb-opt-2-3-035_constr.txt

   ID    Z sym.   atoms
    1    6 C      1, 3-5, 7-11
    2    7 N      2, 15
    3    8 O      6
    4    1 H      12-14, 16-24
constraining angle 1 2 3 4 to   35.0907730°, actual value:   35.0907730°
constraining angle 11 1 2 3 to   53.0857567°, actual value:   53.0857567°
constraining angle 2 3 4 15 to  183.9453053°, actual value: -176.0546947°
constraining angle 1 2 5 13 to   29.9904908°, actual value:   29.9904908°
constraining angle 16 4 15 22 to   71.0241719°, actual value:   71.0241719°
constraining angle 17 4 15 22 to  186.0144251°, actual value: -173.9855749°
constraining angle 16 4 15 24 to  181.9734645°, actual value: -178.0265355°
constraining angle 17 4 15 24 to  296.9637177°, actual value:  -63.0362823°

          :  Hamiltonian                  GFN2-xTB          :
 * total energy  :   -35.2415916 Eh     change       -0.2413316E-08 Eh
 * total energy  :   -35.2652585 Eh     change       -0.2366688E-01 Eh
 * total energy  :   -35.2696573 Eh     change       -0.4398801E-02 Eh
 * total energy  :   -35.2792616 Eh     change       -0.9604277E-02 Eh
 * total energy  :   -35.2828991 Eh     change       -0.3637497E-02 Eh
 * total energy  :   -35.2861993 Eh     change       -0.3300284E-02 Eh
 * total energy  :   -35.2865582 Eh     change       -0.3588990E-03 Eh
 * total energy  :   -35.2878279 Eh     change       -0.1269676E-02 Eh
 * total energy  :   -35.2883039 Eh     change       -0.4759873E-03 Eh
 * total energy  :   -35.2885511 Eh     change       -0.2472434E-03 Eh
 * total energy  :   -35.2886773 Eh     change       -0.1261900E-03 Eh
 * total energy  :   -35.2887521 Eh     change       -0.7476640E-04 Eh
 * total energy  :   -35.2887908 Eh     change       -0.3872756E-04 Eh
 * total energy  :   -35.2888169 Eh     change       -0.2607292E-04 Eh
 * total energy  :   -35.2888250 Eh     change       -0.8085472E-05 Eh
 * total energy  :   -35.2888297 Eh     change       -0.4719156E-05 Eh
 * total energy  :   -35.2888351 Eh     change       -0.5385070E-05 Eh
 * total energy  :   -35.2888371 Eh     change       -0.2002559E-05 Eh
   *** GEOMETRY OPTIMIZATION CONVERGED AFTER 18 ITERATIONS ***

 final structure:
================
24
 xtb: 6.5.0 (97a52f5)
C           -0.62607403953477       -0.32757360704423        0.25868877506602
N            0.48374746153958       -0.91660926080166        0.91575731953941
C            1.75885497174846       -0.46583378015420        0.74880767785091
C            1.90125904617887        1.04515516623602        0.56605019448062
C            0.28452549826143       -2.28657297073798        1.36307502760357
O            2.73578418333650       -1.17260348452430        0.90528257488803
C           -1.75303536386794        0.02380905540872        0.99109103979892
C           -2.84607792397793        0.73185207859158       -1.02439982111108
C           -2.85832318313485        0.55237241326938        0.34838537606164
C           -1.72681317434945        0.37332053654741       -1.75736885885211
C           -0.62168689993401       -0.16298975970059       -1.12227324406810
H            1.24947520584699       -2.79164879730771        1.35111509378833
H           -0.41569307311269       -2.80534546933586        0.70812264248927
H           -0.11092423961160       -2.29352280914303        2.38106339040635
N            3.26270391374667        1.47093931030973        0.30190405805452
H            1.56691622997065        1.52371955564484        1.49411780956773
H            1.25322543123503        1.42760154135214       -0.22651280438471
H           -1.75601989340912       -0.11587533678914        2.06134686532324
H           -3.73090449414568        0.82638177162946        0.92222574547048
H           -1.71732396143138        0.50223292619821       -2.82941518527052
H            0.24901096039598       -0.45843696882021       -1.68998167518265
H            3.86776743231261        1.02458181581805        0.99077620709018
H           -3.70865891863804        1.14600357775432       -1.52395218366085
H            3.56825584057471        1.05604551560014       -0.57671302494879

          :  Hamiltonian                  GFN2-xTB          :
         :: total energy             -35.288837096864 Eh    ::
         :: gradient norm              0.000899388643 Eh/a0 ::
         :: HOMO-LUMO gap              3.376366105092 eV    ::
         :: SCC energy               -35.811278326612 Eh    ::
         :: -> dispersion             -0.021183114399 Eh    ::
         :: repulsion energy           0.522258295084 Eh    ::

    * Orbital Energies and Occupations

         #    Occupation            Energy/Eh            Energy/eV
      -------------------------------------------------------------
         1        2.0000           -0.7008109             -19.0700
       ...           ...                  ...                  ...
        20        2.0000           -0.4958275             -13.4922
        21        2.0000           -0.4944897             -13.4557
        22        2.0000           -0.4918860             -13.3849
        23        2.0000           -0.4859102             -13.2223
        24        2.0000           -0.4769437             -12.9783
        25        2.0000           -0.4492523             -12.2248
        26        2.0000           -0.4469300             -12.1616
        27        2.0000           -0.4439515             -12.0805
        28        2.0000           -0.4258482             -11.5879
        29        2.0000           -0.4222907             -11.4911
        30        2.0000           -0.4073905             -11.0857
        31        2.0000           -0.3912979             -10.6478
        32        2.0000           -0.3681737             -10.0185 (HOMO)
        33                         -0.2440945              -6.6421 (LUMO)
        34                         -0.2408440              -6.5537
        35                         -0.2121480              -5.7728
        36                         -0.1114828              -3.0336
        37                         -0.0061203              -0.1665
        38                          0.0702259               1.9109
        39                          0.0759409               2.0665
        40                          0.1088179               2.9611
        41                          0.1356672               3.6917
        42                          0.1432053               3.8968
        43                          0.1514838               4.1221
       ...                                ...                  ...
        60                          0.6537153              17.7885
      -------------------------------------------------------------
                  HL-Gap            0.1240792 Eh            3.3764 eV

     #   Z          covCN         q      C6AA      α(0)
     1   6 C        2.923     0.064    26.576     8.454
     2   7 N        2.738    -0.113    23.459     7.194
     3   6 C        2.764     0.256    22.688     7.800
     4   6 C        3.734    -0.007    20.783     6.507
     5   6 C        3.705    -0.040    21.439     6.620
     6   8 O        0.858    -0.437    22.432     6.350
     7   6 C        2.923    -0.041    29.022     8.834
     8   6 C        2.920    -0.031    28.773     8.796
     9   6 C        2.920    -0.027    28.678     8.782
    10   6 C        2.920    -0.027    28.679     8.782
    11   6 C        2.922    -0.043    29.060     8.840
    12   1 H        0.925     0.084     1.937     2.176
    13   1 H        0.925     0.045     2.390     2.417
    14   1 H        0.924     0.049     2.333     2.389
    15   7 N        2.628    -0.336    28.649     7.949
    16   1 H        0.924     0.052     2.290     2.367
    17   1 H        0.924     0.044     2.400     2.423
    18   1 H        0.926     0.044     2.395     2.420
    19   1 H        0.926     0.041     2.435     2.440
    20   1 H        0.926     0.041     2.436     2.441
    21   1 H        0.926     0.039     2.462     2.454
    22   1 H        0.860     0.158     1.350     1.820
    23   1 H        0.926     0.040     2.449     2.447
    24   1 H        0.860     0.145     1.438     1.878

Wiberg/Mayer (AO) data.
largest (>0.10) Wiberg bond orders for each atom

     #   Z sym  total        # sym  WBO       # sym  WBO       # sym  WBO
 ---------------------------------------------------------------------------
     1   6 C    3.968 --     7 C    1.400    11 C    1.392     2 N    1.006
                             8 C    0.106
     2   7 N    3.467 --     3 C    1.209     1 C    1.006     5 C    0.979
                             6 O    0.178
     3   6 C    3.944 --     6 O    1.691     2 N    1.209     4 C    0.951
     4   6 C    3.991 --    15 N    1.039    17 H    0.961    16 H    0.952
                             3 C    0.951
     5   6 C    3.966 --    13 H    0.982     2 N    0.979    14 H    0.977
                            12 H    0.972
     6   8 O    2.009 --     3 C    1.691     2 N    0.178
     7   6 C    3.991 --     9 C    1.444     1 C    1.400    18 H    0.969
                            10 C    0.110
     8   6 C    3.989 --     9 C    1.439    10 C    1.435    23 H    0.971
                             1 C    0.106
     9   6 C    3.991 --     7 C    1.444     8 C    1.439    19 H    0.970
                            11 C    0.110
    10   6 C    3.991 --    11 C    1.447     8 C    1.435    20 H    0.970
                             7 C    0.110
    11   6 C    3.991 --    10 C    1.447     1 C    1.392    21 H    0.968
                             9 C    0.110
    12   1 H    0.992 --     5 C    0.972
    13   1 H    0.998 --     5 C    0.982
    14   1 H    0.997 --     5 C    0.977
    15   7 N    3.006 --     4 C    1.039    24 H    0.964    22 H    0.957
    16   1 H    0.997 --     4 C    0.952
    17   1 H    0.998 --     4 C    0.961
    18   1 H    0.998 --     7 C    0.969
    19   1 H    0.998 --     9 C    0.970
    20   1 H    0.998 --    10 C    0.970
    21   1 H    0.998 --    11 C    0.968
    22   1 H    0.975 --    15 N    0.957
    23   1 H    0.998 --     8 C    0.971
    24   1 H    0.979 --    15 N    0.964
 ---------------------------------------------------------------------------

molecular dipole:
                 x           y           z       tot (Debye)
 q only:       -1.404       0.162      -0.158
   full:       -1.545      -0.138      -0.233       3.986

           -------------------------------------------------
          | TOTAL ENERGY              -35.288837096864 Eh   |
          | GRADIENT NORM               0.000899388643 Eh/α |
          | HOMO-LUMO GAP               3.376366105092 eV   |
           -------------------------------------------------

 * finished run on 2023/11/18 at 08:30:44.132
