                               Psi4 1.6 release

  ==> Input File <==

--------------------------------------------------------------------------
molecule {
0 1
 C   -0.741394   -0.343324    0.206667
 N    0.316601   -0.431265    1.137594
 C    1.498484    0.309696    1.029898
 C    2.506440   -0.076121   -0.044489
 C   -0.059192   -0.668570    2.529351
 O    1.837744    1.057203    1.922112
 C   -2.030483   -0.001992    0.619852
 C   -2.830023   -0.070941   -1.646720
 C   -3.059064    0.119506   -0.296173
 C   -1.552204   -0.390346   -2.069535
 C   -0.520146   -0.520171   -1.158822
 H    0.745417   -1.230406    3.002621
 H   -0.979462   -1.243420    2.561645
 H   -0.200379    0.262375    3.085775
 N    3.726967    0.705745    0.008500
 H    2.109910    0.020321   -1.058378
 H    2.752179   -1.133675    0.098081
 H   -2.242938    0.196775    1.657773
 H   -4.046672    0.381292    0.054340
 H   -1.351063   -0.544260   -3.119400
 H    0.450021   -0.819073   -1.517067
 H    3.478351    1.692897   -0.024449
 H   -3.634509    0.029234   -2.358904
 H    4.135402    0.605518    0.936925
}
memory 20GB
set_num_threads(5)
psi4_io.set_default_path("/scratch/liuchw/Psi4-3_25_Index_0_GrowFragment_3-farH_in17")
set freeze_core True
E, wfn = energy('wb97x-d/6-311+G*',return_wfn=True)
oeprop(wfn,"WIBERG_LOWDIN_INDICES")
clean()
--------------------------------------------------------------------------

    Molecular point group: c1

    Geometry (in Angstrom), charge = 0, multiplicity = 1:

       Center              X                  Y                   Z               Mass
    ------------   -----------------  -----------------  -----------------  -----------------
         C           -0.776688992987    -0.338752927113    -0.038179865947    12.000000000000
         N            0.281306007013    -0.426693927113     0.892747134053    14.003074004430
         C            1.463189007013     0.314267072887     0.785051134053    12.000000000000
         C            2.471145007013    -0.071549927113    -0.289335865947    12.000000000000
         C           -0.094486992987    -0.663998927113     2.284504134053    12.000000000000
         O            1.802449007013     1.061774072887     1.677265134053    15.994914619570
         C           -2.065777992987     0.002579072887     0.375005134053    12.000000000000
         C           -2.865317992987    -0.066369927113    -1.891566865947    12.000000000000
         C           -3.094358992987     0.124077072887    -0.541019865947    12.000000000000
         C           -1.587498992987    -0.385774927113    -2.314381865947    12.000000000000
         C           -0.555440992987    -0.515599927113    -1.403668865947    12.000000000000
         H            0.710122007013    -1.225834927113     2.757774134053     1.007825032230
         H           -1.014756992987    -1.238848927113     2.316798134053     1.007825032230
         H           -0.235673992987     0.266946072887     2.840928134053     1.007825032230
         N            3.691672007013     0.710316072887    -0.236346865947    14.003074004430
         H            2.074615007013     0.024892072887    -1.303224865947     1.007825032230
         H            2.716884007013    -1.129103927113    -0.146765865947     1.007825032230
         H           -2.278232992987     0.201346072887     1.412926134053     1.007825032230
         H           -4.081966992987     0.385863072887    -0.190506865947     1.007825032230
         H           -1.386357992987    -0.539688927113    -3.364246865947     1.007825032230
         H            0.414726007013    -0.814501927113    -1.761913865947     1.007825032230
         H            3.443056007013     1.697468072887    -0.269295865947     1.007825032230
         H           -3.669803992987     0.033805072887    -2.603750865947     1.007825032230
         H            4.100107007013     0.610089072887     0.692078134053     1.007825032230

  Charge       = 0
  Multiplicity = 1
  Basis Set: 6-311+G*
    Blend: 6-311+G*
  Basis Set: (6-311+G* AUX)
    Blend: HEAVY-AUG-CC-PVTZ-JKFIT

    Orbital Energies [Eh]
    ---------------------

    Doubly Occupied:

       1A    -19.242977     2A    -14.469616     3A    -14.414988
       4A    -10.403656     5A    -10.345139     6A    -10.324631
       7A    -10.314294     8A    -10.296864     9A    -10.296830
      10A    -10.295052    11A    -10.294486    12A    -10.290110
      13A     -1.173786    14A     -1.060442    15A     -0.994885
      16A     -0.967013    17A     -0.866049    18A     -0.860331
      19A     -0.830885    20A     -0.780061    21A     -0.728195
      22A     -0.712517    23A     -0.664143    24A     -0.624498
      25A     -0.606862    26A     -0.596684    27A     -0.576876
      28A     -0.566995    29A     -0.550802    30A     -0.542270
      31A     -0.523666    32A     -0.508784    33A     -0.505714
      34A     -0.493425    35A     -0.487676    36A     -0.471937
      37A     -0.459242    38A     -0.443724    39A     -0.438326
      40A     -0.385676    41A     -0.370463    42A     -0.343396
      43A     -0.336766    44A     -0.302050

  @DF-RKS Final Energy:  -534.84136412136650

   => Energetics <=

    Nuclear Repulsion Energy =            685.8085579102437350
    One-Electron Energy =               -2084.3306870986052672
    Two-Electron Energy =                 915.9010886192223779
    DFT Exchange-Correlation Energy =     -52.2058034611501398
    Empirical Dispersion Energy =          -0.0145200910771981
    VV10 Nonlocal Energy =                  0.0000000000000000
    Total Energy =                       -534.8413641213664960
 Dipole X            :         -1.5779292            0.7402693           -0.8376599
 Dipole Y            :          1.1524751           -1.6152653           -0.4627902
 Dipole Z            :         -0.4244409            0.3631407           -0.0613002
 Magnitude           :                                                    0.9589612
*** Psi4 exiting successfully. Buy a developer a beer!
