   * xtb version 6.5.0 (97a52f5) compiled by 'conda@d2599ee0d4f4' on 2022-05-15
          program call               : /home/liuchw/anaconda3/envs/xtbenv/bin/xtb --gfn 2 --chrg 0 --uhf 0 3_25_Index_0_GrowFragment_3-opt-2-3-231_preQMOPTprefit_xyzformat.xyz --opt --input xtb-opt-2-3-231_constr.txt

   ID    Z sym.   atoms
    1    6 C      1, 3-5, 7-11
    2    7 N      2, 15
    3    8 O      6
    4    1 H      12-14, 16-24
constraining angle 1 2 3 4 to  231.0748271°, actual value: -128.9251729°
constraining angle 11 1 2 3 to   53.0846569°, actual value:   53.0846569°
constraining angle 2 3 4 15 to  183.9528839°, actual value: -176.0471161°
constraining angle 1 2 5 13 to   29.9800474°, actual value:   29.9800474°
constraining angle 16 4 15 22 to   71.0177031°, actual value:   71.0177031°
constraining angle 17 4 15 22 to  186.0162026°, actual value: -173.9837974°
constraining angle 16 4 15 24 to  181.9697148°, actual value: -178.0302852°
constraining angle 17 4 15 24 to  296.9682143°, actual value:  -63.0317857°

          :  Hamiltonian                  GFN2-xTB          :
 * total energy  :   -35.2155495 Eh     change       -0.2964740E-09 Eh
 * total energy  :   -35.2422340 Eh     change       -0.2668451E-01 Eh
 * total energy  :   -35.2523482 Eh     change       -0.1011416E-01 Eh
 * total energy  :   -35.2584649 Eh     change       -0.6116700E-02 Eh
 * total energy  :   -35.2639585 Eh     change       -0.5493600E-02 Eh
 * total energy  :   -35.2669158 Eh     change       -0.2957377E-02 Eh
 * total energy  :   -35.2683269 Eh     change       -0.1411070E-02 Eh
 * total energy  :   -35.2712409 Eh     change       -0.2914026E-02 Eh
 * total energy  :   -35.2720433 Eh     change       -0.8023726E-03 Eh
 * total energy  :   -35.2726839 Eh     change       -0.6406019E-03 Eh
 * total energy  :   -35.2762779 Eh     change       -0.4068728E-04 Eh
 * total energy  :   -35.2763331 Eh     change       -0.5520891E-04 Eh
 * total energy  :   -35.2763852 Eh     change       -0.5211164E-04 Eh
 * total energy  :   -35.2764386 Eh     change       -0.5341850E-04 Eh
 * total energy  :   -35.2764692 Eh     change       -0.3060325E-04 Eh
 * total energy  :   -35.2764867 Eh     change       -0.1745117E-04 Eh
 * total energy  :   -35.2764980 Eh     change       -0.1135232E-04 Eh
 * total energy  :   -35.2765029 Eh     change       -0.4910397E-05 Eh
 * total energy  :   -35.2765046 Eh     change       -0.1631975E-05 Eh
   *** GEOMETRY OPTIMIZATION CONVERGED AFTER 33 ITERATIONS ***

 final structure:
================
24
 xtb: 6.5.0 (97a52f5)
C           -0.85255224388203       -0.00067263125346        0.19504937384550
N            0.25171988780957       -0.06174636510482        1.09529259693508
C            1.40646815715836        0.57331485179227        0.71258951478976
C            2.73621029005599       -0.18611430473597        0.76238350851835
C            0.20020739577229       -1.18852239536355        2.00908724551162
O            1.36297555563395        1.66769730411503        0.18573271507800
C           -2.10603089570710        0.37411924166753        0.66063923375507
C           -3.02705075234487        0.00488881392376       -1.52320168394152
C           -3.18929991031302        0.37671690778243       -0.19906137824392
C           -1.77801335356509       -0.37225868474690       -1.98567097400199
C           -0.69173312555877       -0.38520470920613       -1.12888736846381
H            1.19371574593887       -1.50297388902835        2.30968393732611
H           -0.31791997332038       -2.03161107698421        1.54709000780084
H           -0.35810425398936       -0.90114337348955        2.90505844981527
N            3.87610834169530        0.64062950632882        0.41544052279486
H            2.66907163110144       -1.00790179969986        0.03932548885910
H            2.94614314162842       -0.63834109614988        1.73551620720018
H           -2.22236062927054        0.67148036875100        1.69165364816471
H           -4.16147193958052        0.67503112243073        0.16434052073013
H           -1.64788094676917       -0.66515090887698       -3.01692959755381
H            0.28463393259285       -0.67628012365297       -1.48816847083622
H            3.64926951654800        1.14554408588880       -0.44112126895317
H           -3.87270612282286        0.01086118220011       -2.19436704429799
H            3.95859054118884        1.38463699341200        1.10571881516780

          :  Hamiltonian                  GFN2-xTB          :
         :: total energy             -35.276504559716 Eh    ::
         :: gradient norm              0.000812126769 Eh/a0 ::
         :: HOMO-LUMO gap              3.490982032568 eV    ::
         :: SCC energy               -35.797612458818 Eh    ::
         :: -> dispersion             -0.020996507087 Eh    ::
         :: repulsion energy           0.520961775661 Eh    ::

    * Orbital Energies and Occupations

         #    Occupation            Energy/Eh            Energy/eV
      -------------------------------------------------------------
         1        2.0000           -0.7021710             -19.1070
       ...           ...                  ...                  ...
        20        2.0000           -0.4963851             -13.5073
        21        2.0000           -0.4886446             -13.2967
        22        2.0000           -0.4873481             -13.2614
        23        2.0000           -0.4868186             -13.2470
        24        2.0000           -0.4811192             -13.0919
        25        2.0000           -0.4503152             -12.2537
        26        2.0000           -0.4422694             -12.0348
        27        2.0000           -0.4376026             -11.9078
        28        2.0000           -0.4175853             -11.3631
        29        2.0000           -0.4141559             -11.2698
        30        2.0000           -0.4086998             -11.1213
        31        2.0000           -0.3889594             -10.5841
        32        2.0000           -0.3679131             -10.0114 (HOMO)
        33                         -0.2396219              -6.5204 (LUMO)
        34                         -0.2324868              -6.3263
        35                         -0.2181683              -5.9367
        36                         -0.1028751              -2.7994
        37                         -0.0049864              -0.1357
        38                          0.0657384               1.7888
        39                          0.0805216               2.1911
        40                          0.0953371               2.5943
        41                          0.1146996               3.1211
        42                          0.1237979               3.3687
        43                          0.1434435               3.9033
       ...                                ...                  ...
        60                          0.6592235              17.9384
      -------------------------------------------------------------
                  HL-Gap            0.1282912 Eh            3.4910 eV

     #   Z          covCN         q      C6AA      α(0)
     1   6 C        2.937     0.078    26.260     8.404
     2   7 N        2.736    -0.123    23.674     7.226
     3   6 C        2.765     0.259    22.647     7.793
     4   6 C        3.731    -0.005    20.761     6.504
     5   6 C        3.699    -0.044    21.527     6.636
     6   8 O        0.859    -0.420    22.082     6.300
     7   6 C        2.922    -0.038    28.939     8.822
     8   6 C        2.920    -0.031    28.763     8.795
     9   6 C        2.920    -0.027    28.679     8.782
    10   6 C        2.921    -0.026    28.659     8.779
    11   6 C        2.922    -0.037    28.912     8.818
    12   1 H        0.925     0.055     2.264     2.353
    13   1 H        0.924     0.048     2.351     2.398
    14   1 H        0.924     0.054     2.268     2.355
    15   7 N        2.628    -0.337    28.667     7.952
    16   1 H        0.924     0.051     2.305     2.374
    17   1 H        0.924     0.042     2.417     2.431
    18   1 H        0.926     0.045     2.388     2.417
    19   1 H        0.926     0.039     2.457     2.451
    20   1 H        0.926     0.039     2.458     2.452
    21   1 H        0.926     0.035     2.520     2.483
    22   1 H        0.860     0.157     1.352     1.821
    23   1 H        0.926     0.038     2.472     2.459
    24   1 H        0.860     0.147     1.422     1.868

Wiberg/Mayer (AO) data.
largest (>0.10) Wiberg bond orders for each atom

     #   Z sym  total        # sym  WBO       # sym  WBO       # sym  WBO
 ---------------------------------------------------------------------------
     1   6 C    3.965 --    11 C    1.402     7 C    1.401     2 N    0.989
                             8 C    0.106
     2   7 N    3.422 --     3 C    1.179     5 C    0.990     1 C    0.989
                             6 O    0.162
     3   6 C    3.941 --     6 O    1.718     2 N    1.179     4 C    0.949
     4   6 C    3.991 --    15 N    1.040    17 H    0.960    16 H    0.950
                             3 C    0.949
     5   6 C    3.974 --     2 N    0.990    13 H    0.980    14 H    0.976
                            12 H    0.975
     6   8 O    2.025 --     3 C    1.718     2 N    0.162
     7   6 C    3.991 --     9 C    1.447     1 C    1.401    18 H    0.969
                            10 C    0.111
     8   6 C    3.992 --    10 C    1.440     9 C    1.437    23 H    0.971
                             1 C    0.106
     9   6 C    3.991 --     7 C    1.447     8 C    1.437    19 H    0.971
                            11 C    0.111
    10   6 C    3.992 --    11 C    1.443     8 C    1.440    20 H    0.970
                             7 C    0.111
    11   6 C    3.991 --    10 C    1.443     1 C    1.402    21 H    0.969
                             9 C    0.111
    12   1 H    0.996 --     5 C    0.975
    13   1 H    0.998 --     5 C    0.980
    14   1 H    0.997 --     5 C    0.976
    15   7 N    3.007 --     4 C    1.040    24 H    0.963    22 H    0.956
    16   1 H    0.997 --     4 C    0.950
    17   1 H    0.998 --     4 C    0.960
    18   1 H    0.998 --     7 C    0.969
    19   1 H    0.998 --     9 C    0.971
    20   1 H    0.998 --    10 C    0.970
    21   1 H    0.999 --    11 C    0.969
    22   1 H    0.975 --    15 N    0.956
    23   1 H    0.998 --     8 C    0.971
    24   1 H    0.978 --    15 N    0.963
 ---------------------------------------------------------------------------

molecular dipole:
                 x           y           z       tot (Debye)
 q only:       -0.605      -1.176       0.432
   full:       -0.804      -1.195       0.507       3.880

           -------------------------------------------------
          | TOTAL ENERGY              -35.276504559716 Eh   |
          | GRADIENT NORM               0.000812126769 Eh/α |
          | HOMO-LUMO GAP               3.490982032568 eV   |
           -------------------------------------------------

 * finished run on 2023/11/18 at 08:26:31.371
