                               Psi4 1.6 release

  ==> Input File <==

--------------------------------------------------------------------------
molecule {
0 1
 C   -0.640016   -0.370682    0.186388
 N    0.495249   -0.956778    0.786867
 C    1.753595   -0.438893    0.807582
 C    1.964407    0.977447    0.271962
 C    0.288216   -2.226078    1.466216
 O    2.684589   -1.056164    1.291086
 C   -1.799905   -0.204124    0.938710
 C   -2.906347    0.783903   -0.947708
 C   -2.924268    0.367467    0.372372
 C   -1.760460    0.607319   -1.704384
 C   -0.633292    0.033440   -1.145196
 H    1.211564   -2.800793    1.401550
 H   -0.523076   -2.768821    0.985271
 H    0.052501   -2.076180    2.522476
 N    3.360640    1.373939    0.267429
 H    1.405850    1.676752    0.905809
 H    1.579975    1.100697   -0.739865
 H   -1.816702   -0.517577    1.971259
 H   -3.816033    0.493429    0.968208
 H   -1.744041    0.910774   -2.740531
 H    0.235910   -0.147163   -1.759002
 H    3.752050    1.166315    1.185608
 H   -3.782843    1.234842   -1.387184
 H    3.872427    0.743932   -0.347729
}
memory 20GB
set_num_threads(5)
psi4_io.set_default_path("/scratch/liuchw/Psi4-3_25_Index_0_GrowFragment_3-farH_in17")
set freeze_core True
E, wfn = energy('wb97x-d/6-311+G*',return_wfn=True)
oeprop(wfn,"WIBERG_LOWDIN_INDICES")
clean()
--------------------------------------------------------------------------

    Molecular point group: c1

    Geometry (in Angstrom), charge = 0, multiplicity = 1:

       Center              X                  Y                   Z               Mass
    ------------   -----------------  -----------------  -----------------  -----------------
         C           -0.746467522859    -0.262905261845    -0.065628128439    12.000000000000
         N            0.388797477141    -0.849001261845     0.534850871561    14.003074004430
         C            1.647143477141    -0.331116261845     0.555565871561    12.000000000000
         C            1.857955477141     1.085223738155     0.019945871561    12.000000000000
         C            0.181764477141    -2.118301261845     1.214199871561    12.000000000000
         O            2.578137477141    -0.948387261845     1.039069871561    15.994914619570
         C           -1.906356522859    -0.096347261845     0.686693871561    12.000000000000
         C           -3.012798522859     0.891679738155    -1.199724128439    12.000000000000
         C           -3.030719522859     0.475243738155     0.120355871561    12.000000000000
         C           -1.866911522859     0.715095738155    -1.956400128439    12.000000000000
         C           -0.739743522859     0.141216738155    -1.397212128439    12.000000000000
         H            1.105112477141    -2.693016261845     1.149533871561     1.007825032230
         H           -0.629527522859    -2.661044261845     0.733254871561     1.007825032230
         H           -0.053950522859    -1.968403261845     2.270459871561     1.007825032230
         N            3.254188477141     1.481715738155     0.015412871561    14.003074004430
         H            1.299398477141     1.784528738155     0.653792871561     1.007825032230
         H            1.473523477141     1.208473738155    -0.991881128439     1.007825032230
         H           -1.923153522859    -0.409800261845     1.719242871561     1.007825032230
         H           -3.922484522859     0.601205738155     0.716191871561     1.007825032230
         H           -1.850492522859     1.018550738155    -2.992547128439     1.007825032230
         H            0.129458477141    -0.039386261845    -2.011018128439     1.007825032230
         H            3.645598477141     1.274091738155     0.933591871561     1.007825032230
         H           -3.889294522859     1.342618738155    -1.639200128439     1.007825032230
         H            3.765975477141     0.851708738155    -0.599745128439     1.007825032230

  Charge       = 0
  Multiplicity = 1
  Basis Set: 6-311+G*
    Blend: 6-311+G*
  Basis Set: (6-311+G* AUX)
    Blend: HEAVY-AUG-CC-PVTZ-JKFIT

    Orbital Energies [Eh]
    ---------------------

    Doubly Occupied:

       1A    -19.217825     2A    -14.475608     3A    -14.407791
       4A    -10.388948     5A    -10.345503     6A    -10.315271
       7A    -10.314244     8A    -10.304108     9A    -10.303772
      10A    -10.303431    11A    -10.303004    12A    -10.299885
      13A     -1.156998    14A     -1.063843    15A     -0.986648
      16A     -0.974029    17A     -0.872087    18A     -0.865932
      19A     -0.834233    20A     -0.770914    21A     -0.736042
      22A     -0.722510    23A     -0.666950    24A     -0.620972
      25A     -0.605520    26A     -0.593491    27A     -0.577412
      28A     -0.567103    29A     -0.550354    30A     -0.536383
      31A     -0.526919    32A     -0.514867    33A     -0.500130
      34A     -0.490135    35A     -0.484836    36A     -0.477387
      37A     -0.457610    38A     -0.452024    39A     -0.437460
      40A     -0.375712    41A     -0.353399    42A     -0.350152
      43A     -0.330763    44A     -0.314221

  @DF-RKS Final Energy:  -534.86076245709137

   => Energetics <=

    Nuclear Repulsion Energy =            689.4030601133692926
    One-Electron Energy =               -2091.5821031423829481
    Two-Electron Energy =                 919.5519294083703699
    DFT Exchange-Correlation Energy =     -52.2188022669199654
    Empirical Dispersion Energy =          -0.0148465695281810
    VV10 Nonlocal Energy =                  0.0000000000000000
    Total Energy =                       -534.8607624570914822
 Dipole X            :         -0.6690287           -0.7948888           -1.4639175
 Dipole Y            :         -0.5088539            0.2837782           -0.2250757
 Dipole Z            :         -0.2481603           -0.0512821           -0.2994424
 Magnitude           :                                                    1.5110854
*** Psi4 exiting successfully. Buy a developer a beer!
