                               Psi4 1.6 release

  ==> Input File <==

--------------------------------------------------------------------------
molecule {
0 1
 C   -0.673555   -0.340341    0.254156
 N    0.320622   -0.365792    1.256367
 C    1.588829    0.133794    1.170129
 C    2.192212    0.450954   -0.194875
 C   -0.122217   -0.695611    2.603707
 O    2.264754    0.269580    2.174013
 C   -1.921769    0.204750    0.558656
 C   -2.692181   -0.213354   -1.675380
 C   -2.919263    0.262934   -0.395741
 C   -1.460001   -0.761254   -1.984029
 C   -0.457178   -0.824239   -1.032874
 H    0.698332   -1.197255    3.116174
 H   -0.983263   -1.357318    2.546880
 H   -0.375858    0.198707    3.178108
 N    3.574263    0.886775   -0.107104
 H    1.606024    1.214129   -0.717426
 H    2.188705   -0.439307   -0.826604
 H   -2.110135    0.597379    1.545601
 H   -3.876799    0.690592   -0.137880
 H   -1.273522   -1.150259   -2.973908
 H    0.472847   -1.303447   -1.287243
 H    3.629213    1.657865    0.557052
 H   -3.469802   -0.163856   -2.422007
 H    4.109726    0.151570    0.351426
}
memory 20GB
set_num_threads(5)
psi4_io.set_default_path("/scratch/liuchw/Psi4-3_25_Index_0_GrowFragment_3-farH_in17")
set freeze_core True
E, wfn = energy('wb97x-d/6-311+G*',return_wfn=True)
oeprop(wfn,"WIBERG_LOWDIN_INDICES")
clean()
--------------------------------------------------------------------------

    Molecular point group: c1

    Geometry (in Angstrom), charge = 0, multiplicity = 1:

       Center              X                  Y                   Z               Mass
    ------------   -----------------  -----------------  -----------------  -----------------
         C           -0.757675301814    -0.273971209373    -0.022905867221    12.000000000000
         N            0.236501698186    -0.299422209373     0.979305132779    14.003074004430
         C            1.504708698186     0.200163790627     0.893067132779    12.000000000000
         C            2.108091698186     0.517323790627    -0.471936867221    12.000000000000
         C           -0.206337301814    -0.629241209373     2.326645132779    12.000000000000
         O            2.180633698186     0.335949790627     1.896951132779    15.994914619570
         C           -2.005889301814     0.271119790627     0.281594132779    12.000000000000
         C           -2.776301301814    -0.146984209373    -1.952441867221    12.000000000000
         C           -3.003383301814     0.329303790627    -0.672802867221    12.000000000000
         C           -1.544121301814    -0.694884209373    -2.261090867221    12.000000000000
         C           -0.541298301814    -0.757869209373    -1.309935867221    12.000000000000
         H            0.614211698186    -1.130885209373     2.839112132779     1.007825032230
         H           -1.067383301814    -1.290948209373     2.269818132779     1.007825032230
         H           -0.459978301814     0.265076790627     2.901046132779     1.007825032230
         N            3.490142698186     0.953144790627    -0.384165867221    14.003074004430
         H            1.521903698186     1.280498790627    -0.994487867221     1.007825032230
         H            2.104584698186    -0.372937209373    -1.103665867221     1.007825032230
         H           -2.194255301814     0.663748790627     1.268539132779     1.007825032230
         H           -3.960919301814     0.756961790627    -0.414941867221     1.007825032230
         H           -1.357642301814    -1.083889209373    -3.250969867221     1.007825032230
         H            0.388726698186    -1.237077209373    -1.564304867221     1.007825032230
         H            3.545092698186     1.724234790627     0.279990132779     1.007825032230
         H           -3.553922301814    -0.097486209373    -2.699068867221     1.007825032230
         H            4.025605698186     0.217939790627     0.074364132779     1.007825032230

  Charge       = 0
  Multiplicity = 1
  Basis Set: 6-311+G*
    Blend: 6-311+G*
  Basis Set: (6-311+G* AUX)
    Blend: HEAVY-AUG-CC-PVTZ-JKFIT

    Orbital Energies [Eh]
    ---------------------

    Doubly Occupied:

       1A    -19.220303     2A    -14.478354     3A    -14.409302
       4A    -10.391116     5A    -10.346935     6A    -10.318602
       7A    -10.314521     8A    -10.302349     9A    -10.302323
      10A    -10.301700    11A    -10.301381    12A    -10.297679
      13A     -1.159772    14A     -1.063714    15A     -0.988540
      16A     -0.972752    17A     -0.871284    18A     -0.865081
      19A     -0.833697    20A     -0.773824    21A     -0.735871
      22A     -0.719820    23A     -0.667240    24A     -0.621852
      25A     -0.604788    26A     -0.597250    27A     -0.578665
      28A     -0.566150    29A     -0.550793    30A     -0.537347
      31A     -0.525329    32A     -0.514205    33A     -0.501176
      34A     -0.489821    35A     -0.486730    36A     -0.474950
      37A     -0.456015    38A     -0.452609    39A     -0.436615
      40A     -0.381043    41A     -0.355805    42A     -0.348971
      43A     -0.332190    44A     -0.312026

  @DF-RKS Final Energy:  -534.85882126631441

   => Energetics <=

    Nuclear Repulsion Energy =            688.4341839149172984
    One-Electron Energy =               -2089.6136345118920872
    Two-Electron Energy =                 918.5528570076539836
    DFT Exchange-Correlation Energy =     -52.2174083421437771
    Empirical Dispersion Energy =          -0.0148193348498771
    VV10 Nonlocal Energy =                  0.0000000000000000
    Total Energy =                       -534.8588212663144077
 Dipole X            :         -0.9524680           -0.3696863           -1.3221543
 Dipole Y            :         -0.0979398           -0.2859901           -0.3839299
 Dipole Z            :          0.0782855           -0.3625105           -0.2842251
 Magnitude           :                                                    1.4058015
*** Psi4 exiting successfully. Buy a developer a beer!
