   * xtb version 6.5.0 (97a52f5) compiled by 'conda@d2599ee0d4f4' on 2022-05-15
          program call               : /home/liuchw/anaconda3/envs/xtbenv/bin/xtb --gfn 2 --chrg 0 --uhf 0 3_25_Index_0_GrowFragment_3-opt-2-3-063_preQMOPTprefit_xyzformat.xyz --opt --input xtb-opt-2-3-063_constr.txt

   ID    Z sym.   atoms
    1    6 C      1, 3-5, 7-11
    2    7 N      2, 15
    3    8 O      6
    4    1 H      12-14, 16-24
constraining angle 1 2 3 4 to   63.0397598°, actual value:   63.0397598°
constraining angle 11 1 2 3 to   53.0469525°, actual value:   53.0469525°
constraining angle 2 3 4 15 to  184.0200629°, actual value: -175.9799371°
constraining angle 1 2 5 13 to   30.0006138°, actual value:   30.0006138°
constraining angle 16 4 15 22 to   71.0272643°, actual value:   71.0272643°
constraining angle 17 4 15 22 to  186.0286016°, actual value: -173.9713984°
constraining angle 16 4 15 24 to  181.9810430°, actual value: -178.0189570°
constraining angle 17 4 15 24 to  296.9823803°, actual value:  -63.0176197°

          :  Hamiltonian                  GFN2-xTB          :
 * total energy  :   -35.2661923 Eh     change       -0.1301885E-08 Eh
 * total energy  :   -35.2753175 Eh     change       -0.9125212E-02 Eh
 * total energy  :   -35.2763204 Eh     change       -0.1002932E-02 Eh
 * total energy  :   -35.2781150 Eh     change       -0.1794568E-02 Eh
 * total energy  :   -35.2787910 Eh     change       -0.6760159E-03 Eh
 * total energy  :   -35.2794634 Eh     change       -0.6723768E-03 Eh
 * total energy  :   -35.2799642 Eh     change       -0.5008293E-03 Eh
 * total energy  :   -35.2804064 Eh     change       -0.4422376E-03 Eh
 * total energy  :   -35.2806000 Eh     change       -0.1935851E-03 Eh
 * total energy  :   -35.2807049 Eh     change       -0.1048819E-03 Eh
 * total energy  :   -35.2807614 Eh     change       -0.5651287E-04 Eh
 * total energy  :   -35.2808046 Eh     change       -0.4317663E-04 Eh
 * total energy  :   -35.2808213 Eh     change       -0.1673772E-04 Eh
 * total energy  :   -35.2808283 Eh     change       -0.6960366E-05 Eh
 * total energy  :   -35.2808309 Eh     change       -0.2651842E-05 Eh
 * total energy  :   -35.2808327 Eh     change       -0.1810454E-05 Eh
 * total energy  :   -35.2808342 Eh     change       -0.1425920E-05 Eh
   *** GEOMETRY OPTIMIZATION CONVERGED AFTER 17 ITERATIONS ***

 final structure:
================
24
 xtb: 6.5.0 (97a52f5)
C           -0.64189806755500       -0.30275540816639        0.28519463001051
N            0.46249262403442       -0.85421067714854        1.00319259728090
C            1.72992141753208       -0.44116445969595        0.64687316229902
C            1.96037319155876        1.05059412616280        0.86575460090680
C            0.28921157357849       -2.28019987219172        1.26738838576959
O            2.65432091406499       -1.19714969497116        0.43281583308382
C           -1.71762033112149        0.22794432585505        0.98415179365193
C           -2.84234561203135        0.66916604157399       -1.08896613723342
C           -2.81503233786060        0.71277693864255        0.29512130267743
C           -1.77067760559099        0.13665575957357       -1.78571330078883
C           -0.67367671537596       -0.35714096849081       -1.10244952144763
H            1.27034906228746       -2.74721271296209        1.32195199962242
H           -0.30325819183659       -2.76678911443569        0.49016640889125
H           -0.22641689145604       -2.39627430400381        2.22220050552702
N            3.25301596608996        1.52826731496039        0.41405066728254
H            1.89061882038580        1.22796888215408        1.94511629851653
H            1.17192452302857        1.65552638238187        0.40620894683506
H           -1.68408143136756        0.25825671418160        2.06227016387375
H           -3.65070900860063        1.12647180249500        0.83960380471622
H           -1.79033699082125        0.09884502710219       -2.86471453879016
H            0.16537463480099       -0.77882928706193       -1.63766498699354
H            3.96147355002768        0.88895603771117        0.77378206275477
H           -3.69930938763902        1.04832632920560       -1.62480794758030
H            3.31627728386739        1.39897280712807       -0.59433373086567

          :  Hamiltonian                  GFN2-xTB          :
         :: total energy             -35.280834168328 Eh    ::
         :: gradient norm              0.000697371188 Eh/a0 ::
         :: HOMO-LUMO gap              3.457396065765 eV    ::
         :: SCC energy               -35.800570771563 Eh    ::
         :: -> dispersion             -0.021141419827 Eh    ::
         :: repulsion energy           0.519492298998 Eh    ::

    * Orbital Energies and Occupations

         #    Occupation            Energy/Eh            Energy/eV
      -------------------------------------------------------------
         1        2.0000           -0.7064757             -19.2242
       ...           ...                  ...                  ...
        20        2.0000           -0.4947750             -13.4635
        21        2.0000           -0.4927549             -13.4085
        22        2.0000           -0.4900840             -13.3359
        23        2.0000           -0.4876848             -13.2706
        24        2.0000           -0.4751637             -12.9299
        25        2.0000           -0.4489948             -12.2178
        26        2.0000           -0.4470191             -12.1640
        27        2.0000           -0.4427442             -12.0477
        28        2.0000           -0.4247484             -11.5580
        29        2.0000           -0.4215272             -11.4703
        30        2.0000           -0.4106928             -11.1755
        31        2.0000           -0.3919253             -10.6648
        32        2.0000           -0.3700246             -10.0689 (HOMO)
        33                         -0.2429676              -6.6115 (LUMO)
        34                         -0.2400165              -6.5312
        35                         -0.2272407              -6.1835
        36                         -0.1108511              -3.0164
        37                          0.0018295               0.0498
        38                          0.0683605               1.8602
        39                          0.0812931               2.2121
        40                          0.1109925               3.0203
        41                          0.1354828               3.6867
        42                          0.1420054               3.8642
        43                          0.1493902               4.0651
       ...                                ...                  ...
        60                          0.6519206              17.7397
      -------------------------------------------------------------
                  HL-Gap            0.1270570 Eh            3.4574 eV

     #   Z          covCN         q      C6AA      α(0)
     1   6 C        2.936     0.068    26.477     8.439
     2   7 N        2.737    -0.143    24.096     7.291
     3   6 C        2.770     0.263    22.560     7.779
     4   6 C        3.735    -0.007    20.793     6.508
     5   6 C        3.711    -0.035    21.337     6.601
     6   8 O        0.857    -0.420    22.089     6.301
     7   6 C        2.922    -0.041    29.018     8.834
     8   6 C        2.920    -0.031    28.765     8.795
     9   6 C        2.920    -0.027    28.682     8.782
    10   6 C        2.920    -0.027    28.688     8.783
    11   6 C        2.921    -0.042    29.032     8.836
    12   1 H        0.925     0.077     2.013     2.219
    13   1 H        0.924     0.040     2.448     2.447
    14   1 H        0.924     0.048     2.350     2.398
    15   7 N        2.628    -0.335    28.630     7.947
    16   1 H        0.924     0.062     2.181     2.310
    17   1 H        0.924     0.044     2.402     2.424
    18   1 H        0.926     0.046     2.367     2.406
    19   1 H        0.926     0.041     2.436     2.441
    20   1 H        0.926     0.040     2.445     2.445
    21   1 H        0.926     0.039     2.461     2.453
    22   1 H        0.860     0.158     1.348     1.819
    23   1 H        0.926     0.040     2.453     2.449
    24   1 H        0.860     0.144     1.445     1.883

Wiberg/Mayer (AO) data.
largest (>0.10) Wiberg bond orders for each atom

     #   Z sym  total        # sym  WBO       # sym  WBO       # sym  WBO
 ---------------------------------------------------------------------------
     1   6 C    3.967 --     7 C    1.405    11 C    1.401     2 N    0.984
                             8 C    0.107
     2   7 N    3.378 --     3 C    1.162     1 C    0.984     5 C    0.977
                             6 O    0.162
     3   6 C    3.939 --     6 O    1.728     2 N    1.162     4 C    0.955
     4   6 C    3.991 --    15 N    1.039    17 H    0.962     3 C    0.955
                            16 H    0.946
     5   6 C    3.969 --    13 H    0.981    14 H    0.979     2 N    0.977
                            12 H    0.974
     6   8 O    2.031 --     3 C    1.728     2 N    0.162
     7   6 C    3.991 --     9 C    1.444     1 C    1.405    18 H    0.969
                            10 C    0.111
     8   6 C    3.990 --    10 C    1.439     9 C    1.438    23 H    0.971
                             1 C    0.107
     9   6 C    3.991 --     7 C    1.444     8 C    1.438    19 H    0.970
                            11 C    0.111
    10   6 C    3.992 --    11 C    1.444     8 C    1.439    20 H    0.970
                             7 C    0.111
    11   6 C    3.991 --    10 C    1.444     1 C    1.401    21 H    0.968
                             9 C    0.111
    12   1 H    0.993 --     5 C    0.974
    13   1 H    0.998 --     5 C    0.981
    14   1 H    0.998 --     5 C    0.979
    15   7 N    3.006 --     4 C    1.039    24 H    0.964    22 H    0.957
    16   1 H    0.996 --     4 C    0.946
    17   1 H    0.998 --     4 C    0.962
    18   1 H    0.998 --     7 C    0.969
    19   1 H    0.998 --     9 C    0.970
    20   1 H    0.998 --    10 C    0.970
    21   1 H    0.998 --    11 C    0.968
    22   1 H    0.975 --    15 N    0.957
    23   1 H    0.998 --     8 C    0.971
    24   1 H    0.979 --    15 N    0.964
 ---------------------------------------------------------------------------

molecular dipole:
                 x           y           z       tot (Debye)
 q only:       -1.264       0.259       0.079
   full:       -1.409      -0.062      -0.125       3.598

           -------------------------------------------------
          | TOTAL ENERGY              -35.280834168328 Eh   |
          | GRADIENT NORM               0.000697371188 Eh/α |
          | HOMO-LUMO GAP               3.457396065765 eV   |
           -------------------------------------------------

 * finished run on 2023/11/18 at 08:30:20.992
