                               Psi4 1.6 release

  ==> Input File <==

--------------------------------------------------------------------------
molecule {
0 1
 C    4.207900   -0.750700    0.463500
 N    2.967700   -1.225900    0.938300
 C    1.746200   -1.050800    0.182500
 C    1.741100   -0.912600   -1.209900
 C    2.836100   -1.830700    2.266900
 C    0.496400   -1.040200    0.823600
 C   -0.699000   -0.876100    0.106100
 C   -0.690300   -0.693300   -1.276900
 C    0.545700   -0.746700   -1.926200
 H    0.405700   -1.131600    1.901500
 H    2.653700   -0.969700   -1.794500
 O    4.378600   -0.195400   -0.626700
 H    3.761900   -2.313800    2.585000
 H    2.072800   -2.615500    2.262000
 H    2.582700   -1.048300    2.988800
 H   -1.635600   -0.881500    0.655300
 H    0.596700   -0.665300   -3.009300
 H   -1.563600   -0.525000   -1.800500
 H    5.087000   -0.884300    1.111000
}
set {
  geom_maxiter 400
  g_convergence GAU_LOOSE
  dynamic_level 1
}
geometric_keywords = {
 'coordsys' : 'tric',
 'convergence_cmax' : 1e0,
 'convergence_set' : 'GAU_LOOSE',
 'convergence_energy' : 1e-4,
}
memory 20GB
set_num_threads(5)
psi4_io.set_default_path("/scratch/liuchw/Psi4-3_24_Index_0-farH_in17")
basis {
assign 6-31G*
}
opt_finished = False
if not opt_finished:
    try:
        ener, opt_hist = optimize('mp2',engine='geometric',optimizer_keywords=geometric_keywords, return_history=True)
        opt_finished = len(opt_hist['energy']) < 400
    except Exception as e:
        core.print_out('Exception: %s'%(e))
if not opt_finished:
    try:
        optimize('mp2')
    except:
        set opt_coordinates both
        optimize('mp2')
    opt_finished = True
clean()
assert opt_finished

--------------------------------------------------------------------------

    Molecular point group: c1
  Charge       = 0
  Multiplicity = 1
  Basis Set: ANONYMOUSF5130FCE
    Blend: 6-31G*
  Basis Set: (ANONYMOUSF5130FCE AUX)
    Blend: CC-PVDZ-JKFIT
  @DF-RHF Final Energy:  -437.48255187887452
    Total Energy =                       -437.4825518788745740
 Dipole X            :          1.9881743           -2.3864249           -0.3982506
 Dipole Y            :          1.7165821           -2.4556853           -0.7391032
 Dipole Z            :         -3.2419854            4.5117370            1.2697516
 Magnitude           :                                                    1.5222175
  Basis Set: (ANONYMOUSF5130FCE AUX)
    Blend: CC-PVDZ-RI
    Molecular point group: c1
  Basis Set: ANONYMOUSF5130FCE
    Blend: 6-31G*
  Basis Set: (ANONYMOUSF5130FCE AUX)
    Blend: CC-PVDZ-JKFIT
  Basis Set: (ANONYMOUSF5130FCE AUX)
    Blend: CC-PVDZ-JKFIT
	 Reference Energy          =    -437.4825518788745171 [Eh]
	 Singles Energy            =      -0.0000000000000000 [Eh]
	 Same-Spin Energy          =      -0.3743907412342730 [Eh]
	 Opposite-Spin Energy      =      -1.0300189613189330 [Eh]
	 Correlation Energy        =      -1.4044097025532061 [Eh]
	 Total Energy              =    -438.8869615814277267 [Eh]
	 SCS Total Energy          =    -438.8433715462019791 [Eh]
  @DF-RHF Final Energy:  -437.48948332324687
    Total Energy =                       -437.4894833232468727
  @DF-RHF Final Energy:  -437.49198664884767
    Total Energy =                       -437.4919866488477282
  @DF-RHF Final Energy:  -437.49175326806278
    Total Energy =                       -437.4917532680627801
  @DF-RHF Final Energy:  -437.49369365867011
    Total Energy =                       -437.4936936586700540
  @DF-RHF Final Energy:  -437.49362268584963
    Total Energy =                       -437.4936226858495729
  @DF-RHF Final Energy:  -437.49437332327886
    Total Energy =                       -437.4943733232788645
  @DF-RHF Final Energy:  -437.49432382325045
    Total Energy =                       -437.4943238232505109
  @DF-RHF Final Energy:  -437.49443552157470
    Total Energy =                       -437.4944355215747009
  @DF-RHF Final Energy:  -437.49446861761106
    Total Energy =                       -437.4944686176111190
  @DF-RHF Final Energy:  -437.49449384697158
    Total Energy =                       -437.4944938469715225
  @DF-RHF Final Energy:  -437.49449018219349
    Total Energy =                       -437.4944901821934309
  @DF-RHF Final Energy:  -437.49448826348709
    Total Energy =                       -437.4944882634870282
  Charge       = 0
  Multiplicity = 1
  Basis Set: ANONYMOUSF5130FCE
    Blend: 6-31G*
  Basis Set: (ANONYMOUSF5130FCE AUX)
    Blend: CC-PVDZ-JKFIT

    Orbital Energies [Eh]
    ---------------------

    Doubly Occupied:

       1A    -20.537971     2A    -15.612611     3A    -11.360728
       4A    -11.283591     5A    -11.282725     6A    -11.239152
       7A    -11.237745     8A    -11.235457     9A    -11.231884
      10A    -11.229670    11A     -1.380494    12A     -1.269328
      13A     -1.142133    14A     -1.018877    15A     -1.015137
      16A     -0.962829    17A     -0.872225    18A     -0.827138
      19A     -0.778416    20A     -0.698120    21A     -0.696604
      22A     -0.663500    23A     -0.650540    24A     -0.624022
      25A     -0.608367    26A     -0.586448    27A     -0.583971
      28A     -0.567873    29A     -0.543386    30A     -0.512574
      31A     -0.502203    32A     -0.494861    33A     -0.427852
      34A     -0.412753    35A     -0.333834    36A     -0.308652

  @DF-RHF Final Energy:  -437.49449725390787

   => Energetics <=

    Nuclear Repulsion Energy =            495.8989758164611885
    One-Electron Energy =               -1577.3195962803690691
    Two-Electron Energy =                 643.9261232100000143
    Total Energy =                       -437.4944972539078663
 Dipole X            :          2.7527523           -3.2593045           -0.5065522
 Dipole Y            :         -1.2106139            0.3414134           -0.8692005
 Dipole Z            :         -4.5463687            5.7347309            1.1883622
 Magnitude           :                                                    1.5570194
  Basis Set: (ANONYMOUSF5130FCE AUX)
    Blend: CC-PVDZ-RI
    Molecular point group: c1
  Basis Set: ANONYMOUSF5130FCE
    Blend: 6-31G*
  Basis Set: (ANONYMOUSF5130FCE AUX)
    Blend: CC-PVDZ-JKFIT
  Basis Set: (ANONYMOUSF5130FCE AUX)
    Blend: CC-PVDZ-JKFIT
	 Reference Energy          =    -437.4944972539078663 [Eh]
	 Singles Energy            =      -0.0000000000000000 [Eh]
	 Same-Spin Energy          =      -0.3744062956824468 [Eh]
	 Opposite-Spin Energy      =      -1.0280995154498183 [Eh]
	 Correlation Energy        =      -1.4025058111322650 [Eh]
	 Total Energy              =    -438.8970030650401100 [Eh]

	 ================> DF-SCS-MP2 Energies <==================
	-----------------------------------------------------------
	 SCS Same-Spin Scale       =       0.3333333333333333 [-]
	 SCS Opposite-Spin Scale   =       1.2000000000000000 [-]
	 SCS Same-Spin Energy      =      -0.1248020985608156 [Eh]
	 SCS Opposite-Spin Energy  =      -1.2337194185397820 [Eh]
	 SCS Correlation Energy    =      -1.3585215171005975 [Eh]
	 SCS Total Energy          =    -438.8530187710084647 [Eh]
	-----------------------------------------------------------

  -Total Gradient:
     Atom            X                  Y                   Z
    ------   -----------------  -----------------  -----------------
       1        0.000025722166    -0.000191037094    -0.000146455515
       2        0.000076154389    -0.000202179309    -0.000101878247
       3       -0.000042083870     0.000130449642     0.000055123883
       4       -0.000023958787    -0.000044596311     0.000004790012
       5       -0.000034566777     0.000105819733     0.000039357206
       6        0.000024615860     0.000001288567    -0.000006561012
       7       -0.000023011216     0.000020183064     0.000003109027
       8        0.000085489999    -0.000041756206     0.000059722923
       9        0.000016585420     0.000036233039    -0.000048951856
      10       -0.000014310253    -0.000001435978     0.000002901856
      11        0.000004012791     0.000000584966    -0.000004564562
      12       -0.000049926979     0.000104250590     0.000086752938
      13        0.000008823588    -0.000004672005    -0.000002989190
      14        0.000005812474     0.000012761530    -0.000014102610
      15        0.000006709695    -0.000011165563     0.000018877285
      16        0.000001129122    -0.000007962429     0.000010402230
      17        0.000001239846    -0.000014719119    -0.000004824314
      18       -0.000024728881     0.000017803964    -0.000016459085
      19       -0.000043708585     0.000090148922     0.000065749031

    Molecular point group: c1

    Geometry (in Angstrom), charge = 0, multiplicity = 1:

    C            2.296014985008     0.249828033104     0.498304662735
    N            1.095676911636    -0.295168965650     0.893018613120
    C           -0.103981757687    -0.097134991782     0.157468980502
    C           -0.088652939268    -0.060822875671    -1.243689668760
    C            1.023648256260    -0.968027906624     2.183086294109
    C           -1.322384901342     0.012555024424     0.839178058435
    C           -2.510268253188     0.169747445889     0.127573798810
    C           -2.497645186224     0.218399338615    -1.264688390972
    C           -1.282354394992     0.107960268267    -1.940314135934
    H           -1.351746096459    -0.004237384765     1.923849654708
    H            0.849410213948    -0.144729949855    -1.776125983795
    O            2.500804163878     0.912910325717    -0.511229275929
    H            2.032201975218    -1.249772873101     2.489820180483
    H            0.419640770094    -1.872920670756     2.090425067777
    H            0.593914673663    -0.329937018813     2.961727219231
    H           -3.448350424797     0.255537991786     0.670025156172
    H           -1.259217486776     0.137897407082    -3.026624909580
    H           -3.424371923430     0.344697880346    -1.817755446382
    H            3.101342088680     0.012006958794     1.216534294184

*** Psi4 exiting successfully. Buy a developer a beer!
