                               Psi4 1.6 release

  ==> Input File <==

--------------------------------------------------------------------------
molecule {
0 1
C          4.20790       -0.75070        0.46350
N          2.96770       -1.22590        0.93830
C          1.74620       -1.05080        0.18250
C          1.74110       -0.91260       -1.20990
C          2.83610       -1.83070        2.26690
C          0.49640       -1.04020        0.82360
C         -0.69900       -0.87610        0.10610
C         -0.69030       -0.69330       -1.27690
C          0.54570       -0.74670       -1.92620
H          0.40570       -1.13160        1.90150
H          2.65370       -0.96970       -1.79450
C          5.41700       -0.91200        1.42550
O          4.37860       -0.19540       -0.62670
H          3.76190       -2.31380        2.58500
H          2.07280       -2.61550        2.26200
H          2.58270       -1.04830        2.98880
H         -1.63560       -0.88150        0.65530
H          0.59670       -0.66530       -3.00930
H          5.63850       -1.98490        1.46880
H          5.16110       -0.54490        2.42510
H         -1.56360       -0.52500       -1.80050
H          6.25950       -0.35070        1.07910
}
memory 208GB
set_num_threads(51)
psi4_io.set_default_path("/scratch/liuchw/Psi4-farH_in17")
set maxiter 500
set freeze_core True
set PROPERTIES_ORIGIN ["COM"]
set cubeprop_tasks ['esp']
set basis MINIX
E, wfn = properties('hf',properties=['dipole','WIBERG_LOWDIN_INDICES','MULLIKEN_CHARGES'],return_wfn=True)
cubeprop(wfn)
fchk(wfn, "farH_in17-esp_frag.fchk")
clean()
--------------------------------------------------------------------------

    Molecular point group: c1

    Geometry (in Angstrom), charge = 0, multiplicity = 1:

       Center              X                  Y                   Z               Mass
    ------------   -----------------  -----------------  -----------------  -----------------
         C            2.028312343912     0.182881635652     0.314549614502    12.000000000000
         N            0.788112343912    -0.292318364348     0.789349614502    14.003074004430
         C           -0.433387656088    -0.117218364348     0.033549614502    12.000000000000
         C           -0.438487656088     0.020981635652    -1.358850385498    12.000000000000
         C            0.656512343912    -0.897118364348     2.117949614502    12.000000000000
         C           -1.683187656088    -0.106618364348     0.674649614502    12.000000000000
         C           -2.878587656088     0.057481635652    -0.042850385498    12.000000000000
         C           -2.869887656088     0.240281635652    -1.425850385498    12.000000000000
         C           -1.633887656088     0.186881635652    -2.075150385498    12.000000000000
         H           -1.773887656088    -0.198018364348     1.752549614502     1.007825032230
         H            0.474112343912    -0.036118364348    -1.943450385498     1.007825032230
         C            3.237412343912     0.021581635652     1.276549614502    12.000000000000
         O            2.199012343912     0.738181635652    -0.775650385498    15.994914619570
         H            1.582312343912    -1.380218364348     2.436049614502     1.007825032230
         H           -0.106787656088    -1.681918364348     2.113049614502     1.007825032230
         H            0.403112343912    -0.114718364348     2.839849614502     1.007825032230
         H           -3.815187656088     0.052081635652     0.506349614502     1.007825032230
         H           -1.582887656088     0.268281635652    -3.158250385498     1.007825032230
         H            3.458912343912    -1.051318364348     1.319849614502     1.007825032230
         H            2.981512343912     0.388681635652     2.276149614502     1.007825032230
         H           -3.743187656088     0.408581635652    -1.949450385498     1.007825032230
         H            4.079912343912     0.582881635652     0.930149614502     1.007825032230

  Charge       = 0
  Multiplicity = 1
  Basis Set: MINIX
    Blend: MINIX
  Basis Set: (MINIX AUX)
    Blend: DEF2-UNIVERSAL-JKFIT

    Orbital Energies [Eh]
    ---------------------

    Doubly Occupied:

       1A    -20.297673     2A    -15.453418     3A    -11.323422
       4A    -11.234983     5A    -11.217509     6A    -11.178848
       7A    -11.176118     8A    -11.172992     9A    -11.168991
      10A    -11.168523    11A    -11.164827    12A     -1.373454
      13A     -1.243994    14A     -1.146421    15A     -1.031765
      16A     -1.013719    17A     -0.994664    18A     -0.950667
      19A     -0.839217    20A     -0.818777    21A     -0.753399
      22A     -0.696054    23A     -0.667877    24A     -0.658969
      25A     -0.653448    26A     -0.619514    27A     -0.605367
      28A     -0.596235    29A     -0.577514    30A     -0.569989
      31A     -0.555571    32A     -0.540713    33A     -0.532095
      34A     -0.504681    35A     -0.499713    36A     -0.483394
      37A     -0.405138    38A     -0.390606    39A     -0.342579
      40A     -0.308213

  @DF-RHF Final Energy:  -473.26306145775698

   => Energetics <=

    Nuclear Repulsion Energy =            584.0418953176751984
    One-Electron Energy =               -1800.7478084343088085
    Two-Electron Energy =                 743.4428516588766342
    Total Energy =                       -473.2630614577569759
 Dipole X            :         -1.9614486            1.8437822           -0.1176664
 Dipole Y            :          1.9074277           -2.5847091           -0.6772814
 Dipole Z            :         -5.4026757            6.6714308            1.2687551
 Magnitude           :                                                    1.4430160

  Mulliken Charges: (a.u.)
   Center  Symbol    Alpha    Beta     Spin     Total
       1     C     2.80245  2.80245  0.00000  0.39511
       2     N     3.65974  3.65974  0.00000 -0.31947
       3     C     2.94950  2.94950  0.00000  0.10100
       4     C     3.07060  3.07060  0.00000 -0.14120
       5     C     3.12261  3.12261  0.00000 -0.24522
       6     C     3.07684  3.07684  0.00000 -0.15368
       7     C     3.06518  3.06518  0.00000 -0.13036
       8     C     3.08020  3.08020  0.00000 -0.16039
       9     C     3.06393  3.06393  0.00000 -0.12786
      10     H     0.43285  0.43285  0.00000  0.13430
      11     H     0.41590  0.41590  0.00000  0.16820
      12     C     3.19317  3.19317  0.00000 -0.38635
      13     O     4.20759  4.20759  0.00000 -0.41519
      14     H     0.42931  0.42931  0.00000  0.14137
      15     H     0.42630  0.42630  0.00000  0.14741
      16     H     0.43280  0.43280  0.00000  0.13440
      17     H     0.43072  0.43072  0.00000  0.13855
      18     H     0.42934  0.42934  0.00000  0.14132
      19     H     0.42869  0.42869  0.00000  0.14263
      20     H     0.42980  0.42980  0.00000  0.14040
      21     H     0.43060  0.43060  0.00000  0.13880
      22     H     0.42189  0.42189  0.00000  0.15623

   Total alpha = 40.00000, Total beta = 40.00000, Total charge = -0.00000

  Basis Set: MINIX
    Blend: MINIX
*** Psi4 exiting successfully. Buy a developer a beer!
