                               Psi4 1.6 release

  ==> Input File <==

--------------------------------------------------------------------------
molecule {
0 1
N 2.077115682868 -0.433338023487 -0.064858282754
C 0.746192281613 -0.150438337917 -0.010395602457
C -0.173591368335 -1.269453410915 -0.281188687113
C -1.299796199235 -1.085255901038 -1.095675670077
C 0.306802271471 1.100575274823 0.359305218399
C 0.095467474356 -2.539206177369 0.250253080192
H 2.693457963347 0.381257761331 0.00936934274
C -1.025215388283 1.592372047341 0.631415843203
N 0.420748872827 3.313801332929 0.778482881929
C 1.232740920614 2.233382738619 0.486455390867
C -0.914833086692 2.922875050345 0.889915791937
C -0.762311389415 -3.604118836514 -0.016142410443
C -2.15057277 -2.15598303707 -1.360999781174
C -1.885666287197 -3.416390358453 -0.822665638291
H 0.960022806469 -2.673378291661 0.895759617355
H -1.487847869554 -0.108069891367 -1.53208851631
H 0.791815226843 4.237882552445 0.955329986979
O 2.472743270541 2.268906941056 0.358373155075
H -0.556013329795 -4.582720260406 0.410047800945
H -3.01782032919 -2.00934245502 -1.999925674438
H -2.552569506206 -4.249111075645 -1.030735970145
H -1.936452463013 1.012270761886 0.675063887971
H -1.677094563213 3.643827091836 1.153355201095
H 2.367063021519 -1.192938228691 -0.667608123234
}
memory 20GB
set_num_threads(5)
psi4_io.set_default_path("/scratch/liuchw/Psi4-7_11_Index_0-farH_in17")
set maxiter 500
set freeze_core True
set PROPERTIES_ORIGIN ["COM"]
set cubeprop_tasks ['esp']
set basis aug-cc-pVTZ
E, wfn = properties('mp2',properties=['dipole','GRID_ESP','WIBERG_LOWDIN_INDICES','MULLIKEN_CHARGES'],return_wfn=True)
cubeprop(wfn)
fchk(wfn, "7_11_Index_0-esp.fchk")
clean()
--------------------------------------------------------------------------

    Molecular point group: c1
  Charge       = 0
  Multiplicity = 1
  Basis Set: AUG-CC-PVTZ
    Blend: AUG-CC-PVTZ
  Basis Set: (AUG-CC-PVTZ AUX)
    Blend: AUG-CC-PVTZ-JKFIT

    Orbital Energies [Eh]
    ---------------------

    Doubly Occupied:

       1A    -20.506528     2A    -15.589521     3A    -15.578209
       4A    -11.338311     5A    -11.317401     6A    -11.265902
       7A    -11.262475     8A    -11.255804     9A    -11.255214
      10A    -11.254711    11A    -11.252017    12A    -11.251634
      13A    -11.223971    14A    -11.217345    15A     -1.358516
      16A     -1.258394    17A     -1.247069    18A     -1.166952
      19A     -1.072438    20A     -1.038983    21A     -1.031501
      22A     -0.973924    23A     -0.898235    24A     -0.847042
      25A     -0.830368    26A     -0.792797    27A     -0.762655
      28A     -0.719500    29A     -0.695358    30A     -0.684966
      31A     -0.662422    32A     -0.643425    33A     -0.628000
      34A     -0.604930    35A     -0.595062    36A     -0.592803
      37A     -0.586830    38A     -0.578908    39A     -0.553411
      40A     -0.528302    41A     -0.517340    42A     -0.509984
      43A     -0.494733    44A     -0.462284    45A     -0.411608
      46A     -0.374083    47A     -0.354040    48A     -0.353102
      49A     -0.269038

  @DF-RHF Final Energy:  -606.34527284605883

   => Energetics <=

    Nuclear Repulsion Energy =            816.9059220658089089
    One-Electron Energy =               -2445.1662963879871313
    Two-Electron Energy =                1021.9151014761193892
    Total Energy =                       -606.3452728460588332
  Basis Set: (AUG-CC-PVTZ AUX)
    Blend: AUG-CC-PVTZ-RI
    Molecular point group: c1

    Geometry (in Angstrom), charge = 0, multiplicity = 1:

       Center              X                  Y                   Z               Mass
    ------------   -----------------  -----------------  -----------------  -----------------
         N            2.076526110474    -0.404226496609    -0.080701691257    14.003074004430
         C            0.745602709219    -0.121326811039    -0.026239010960    12.000000000000
         C           -0.174180940729    -1.240341884037    -0.297032095616    12.000000000000
         C           -1.300385771629    -1.056144374160    -1.111519078580    12.000000000000
         C            0.306212699077     1.129686801701     0.343461809896    12.000000000000
         C            0.094877901962    -2.510094650491     0.234409671689    12.000000000000
         H            2.692868390953     0.410369288209    -0.006474065763     1.007825032230
         C           -1.025804960677     1.621483574219     0.615572434700    12.000000000000
         N            0.420159300433     3.342912859807     0.762639473426    14.003074004430
         C            1.232151348220     2.262494265497     0.470611982364    12.000000000000
         C           -0.915422659086     2.951986577223     0.874072383434    12.000000000000
         C           -0.762900961809    -3.575007309636    -0.031985818946    12.000000000000
         C           -2.151162342394    -2.126871510192    -1.376843189677    12.000000000000
         C           -1.886255859591    -3.387278831575    -0.838509046794    12.000000000000
         H            0.959433234075    -2.644266764783     0.879916208852     1.007825032230
         H           -1.488437441948    -0.078958364489    -1.547931924813     1.007825032230
         H            0.791225654449     4.266994079323     0.939486578476     1.007825032230
         O            2.472153698147     2.298018467934     0.342529746572    15.994914619570
         H           -0.556602902189    -4.553608733528     0.394204392442     1.007825032230
         H           -3.018409901584    -1.980230928142    -2.015769082941     1.007825032230
         H           -2.553159078600    -4.219999548767    -1.046579378648     1.007825032230
         H           -1.937042035407     1.041382288764     0.659220479468     1.007825032230
         H           -1.677684135607     3.672938618714     1.137511792592     1.007825032230
         H            2.366473449125    -1.163826701813    -0.683451531737     1.007825032230

  Basis Set: AUG-CC-PVTZ
    Blend: AUG-CC-PVTZ
  Basis Set: (AUG-CC-PVTZ AUX)
    Blend: AUG-CC-PVTZ-JKFIT
	 Reference Energy          =    -606.3452728460588332 [Eh]
	 Singles Energy            =      -0.0000000000000000 [Eh]
	 Same-Spin Energy          =      -0.6250533408656482 [Eh]
	 Opposite-Spin Energy      =      -1.7874105484003653 [Eh]
	 Correlation Energy        =      -2.4124638892660135 [Eh]
	 Total Energy              =    -608.7577367353248974 [Eh]

	 ================> DF-SCS-MP2 Energies <==================
	-----------------------------------------------------------
	 SCS Same-Spin Scale       =       0.3333333333333333 [-]
	 SCS Opposite-Spin Scale   =       1.2000000000000000 [-]
	 SCS Same-Spin Energy      =      -0.2083511136218827 [Eh]
	 SCS Opposite-Spin Energy  =      -2.1448926580804382 [Eh]
	 SCS Correlation Energy    =      -2.3532437717023207 [Eh]
	 SCS Total Energy          =    -608.6985166177611291 [Eh]
	-----------------------------------------------------------

 Dipole X            :          3.1879290           -4.1402394           -0.9523103
 Dipole Y            :          4.2409366           -4.9184646           -0.6775280
 Dipole Z            :          0.9365302           -1.2095454           -0.2730152
 Magnitude           :                                                    1.2001985

  Mulliken Charges: (a.u.)
   Center  Symbol    Alpha    Beta     Spin     Total
       1     N     3.87630  3.87630  0.00000 -0.75259
       2     C     2.62610  2.62610  0.00000  0.74780
       3     C     2.14552  2.14552  0.00000  1.70896
       4     C     3.51717  3.51717  0.00000 -1.03433
       5     C     2.21313  2.21313  0.00000  1.57375
       6     C     3.54007  3.54007  0.00000 -1.08014
       7     H     0.41182  0.41182  0.00000  0.17635
       8     C     3.23821  3.23821  0.00000 -0.47642
       9     N     3.45267  3.45267  0.00000  0.09467
      10     C     3.19945  3.19945  0.00000 -0.39889
      11     C     3.49358  3.49358  0.00000 -0.98716
      12     C     3.31498  3.31498  0.00000 -0.62996
      13     C     3.41567  3.41567  0.00000 -0.83133
      14     C     3.00974  3.00974  0.00000 -0.01947
      15     H     0.49634  0.49634  0.00000  0.00732
      16     H     0.43283  0.43283  0.00000  0.13433
      17     H     0.44795  0.44795  0.00000  0.10410
      18     O     4.40951  4.40951  0.00000 -0.81903
      19     H     0.27766  0.27766  0.00000  0.44469
      20     H     0.34125  0.34125  0.00000  0.31749
      21     H     0.22171  0.22171  0.00000  0.55657
      22     H     0.28480  0.28480  0.00000  0.43040
      23     H     0.16026  0.16026  0.00000  0.67947
      24     H     0.47328  0.47328  0.00000  0.05345

   Total alpha = 49.00000, Total beta = 49.00000, Total charge =  0.00000

  Basis Set: AUG-CC-PVTZ
    Blend: AUG-CC-PVTZ
*** Psi4 exiting successfully. Buy a developer a beer!
