   * xtb version 6.5.0 (97a52f5) compiled by 'conda@d2599ee0d4f4' on 2022-05-15
          program call               : /home/liuchw/anaconda3/envs/xtbenv/bin/xtb --gfn 2 --chrg 0 --uhf 0 3_24_Index_0-opt-2-5-131_preQMOPTprefit_xyzformat.xyz --opt --input xtb-opt-2-5-131_constr.txt

   ID    Z sym.   atoms
    1    6 C      1, 3-9
    2    7 N      2
    3    1 H      10, 11, 13-19
    4    8 O      12
constraining angle 1 2 5 14 to  130.9943910°, actual value:  130.9943910°
constraining angle 1 2 3 4 to   37.0872529°, actual value:   37.0872529°
constraining angle 12 1 2 3 to  358.0008501°, actual value:   -1.9991499°

          :  Hamiltonian                  GFN2-xTB          :
 * total energy  :   -28.6885204 Eh     change       -0.1001617E-08 Eh
 * total energy  :   -28.6972836 Eh     change       -0.8763235E-02 Eh
 * total energy  :   -28.6977639 Eh     change       -0.4802977E-03 Eh
 * total energy  :   -28.6977560 Eh     change        0.7934099E-05 Eh
 * total energy  :   -28.6986758 Eh     change       -0.9198331E-03 Eh
 * total energy  :   -28.6987626 Eh     change       -0.8683662E-04 Eh
 * total energy  :   -28.6988028 Eh     change       -0.4011779E-04 Eh
 * total energy  :   -28.6988379 Eh     change       -0.3508345E-04 Eh
 * total energy  :   -28.6988568 Eh     change       -0.1889927E-04 Eh
 * total energy  :   -28.6988644 Eh     change       -0.7617406E-05 Eh
 * total energy  :   -28.6988677 Eh     change       -0.3314197E-05 Eh
   *** GEOMETRY OPTIMIZATION CONVERGED AFTER 11 ITERATIONS ***

 final structure:
================
19
 xtb: 6.5.0 (97a52f5)
C            2.19485658930949        0.47726278937304        0.60298941607750
N            1.06189086843985       -0.16365511478795        0.97348450488349
C           -0.12588209844942       -0.08280425574051        0.20123485529321
C           -0.05817445143835       -0.05945530868253       -1.18876400346648
C            1.06498849282688       -1.01904504810911        2.13968978777130
C           -1.37044692556928       -0.00104645233928        0.81929849214111
C           -2.52187966010424        0.09186741003809        0.05916578563378
C           -2.45092458192951        0.11050696813136       -1.32278799401878
C           -1.21474101578032        0.03773298418553       -1.94060684311191
H           -1.45368987454478        0.00850739481845        1.89510277656429
H            0.89884739564615       -0.11529868420050       -1.67940388121594
O            2.36688674376577        1.14029353019648       -0.38831708387395
H            0.98719224258469       -2.06682143318609        1.83539043154435
H            0.22934274180978       -0.79554732799028        2.80115202327407
H            1.99313204872294       -0.88138085007342        2.69095559321231
H           -3.47984187242252        0.15665412884792        0.55397689241301
H           -1.14622853903998        0.05268380320064       -3.01802200452005
H           -3.35238170701072        0.18435196042834       -1.91209857510828
H            3.00073460318365        0.32397649588977        1.34814580650699

          :  Hamiltonian                  GFN2-xTB          :
         :: total energy             -28.698867682087 Eh    ::
         :: gradient norm              0.000981325346 Eh/a0 ::
         :: HOMO-LUMO gap              4.006685006770 eV    ::
         :: SCC energy               -29.148922704093 Eh    ::
         :: -> dispersion             -0.015967255529 Eh    ::
         :: repulsion energy           0.449994641293 Eh    ::

    * Orbital Energies and Occupations

         #    Occupation            Energy/Eh            Energy/eV
      -------------------------------------------------------------
         1        2.0000           -0.7011383             -19.0789
       ...           ...                  ...                  ...
        14        2.0000           -0.5135561             -13.9746
        15        2.0000           -0.5065238             -13.7832
        16        2.0000           -0.4991936             -13.5838
        17        2.0000           -0.4948566             -13.4657
        18        2.0000           -0.4860501             -13.2261
        19        2.0000           -0.4837257             -13.1628
        20        2.0000           -0.4808415             -13.0844
        21        2.0000           -0.4417511             -12.0207
        22        2.0000           -0.4392581             -11.9528
        23        2.0000           -0.4244154             -11.5489
        24        2.0000           -0.4105318             -11.1711
        25        2.0000           -0.3968635             -10.7992
        26        2.0000           -0.3859039             -10.5010 (HOMO)
        27                         -0.2386609              -6.4943 (LUMO)
        28                         -0.2283618              -6.2140
        29                         -0.2018844              -5.4936
        30                         -0.0967458              -2.6326
        31                         -0.0076608              -0.2085
        32                          0.0730566               1.9880
        33                          0.0997573               2.7145
        34                          0.1332673               3.6264
        35                          0.1537096               4.1827
        36                          0.1589971               4.3265
        37                          0.1674179               4.5557
       ...                                ...                  ...
        49                          0.6703283              18.2406
      -------------------------------------------------------------
                  HL-Gap            0.1472430 Eh            4.0067 eV

     #   Z          covCN         q      C6AA      α(0)
     1   6 C        2.712     0.248    22.839     7.823
     2   7 N        2.734    -0.079    22.780     7.089
     3   6 C        2.920     0.069    26.446     8.433
     4   6 C        2.923    -0.036    28.895     8.815
     5   6 C        3.700    -0.049    21.610     6.648
     6   6 C        2.922    -0.046    29.135     8.852
     7   6 C        2.921    -0.029    28.729     8.790
     8   6 C        2.919    -0.033    28.819     8.803
     9   6 C        2.921    -0.026    28.659     8.779
    10   1 H        0.926     0.033     2.542     2.493
    11   1 H        0.926     0.063     2.159     2.298
    12   8 O        0.857    -0.402    21.730     6.250
    13   1 H        0.924     0.055     2.261     2.351
    14   1 H        0.925     0.062     2.180     2.309
    15   1 H        0.925     0.059     2.214     2.327
    16   1 H        0.926     0.035     2.513     2.479
    17   1 H        0.926     0.040     2.444     2.445
    18   1 H        0.926     0.036     2.504     2.475
    19   1 H        0.922    -0.000     3.063     2.737

Wiberg/Mayer (AO) data.
largest (>0.10) Wiberg bond orders for each atom

     #   Z sym  total        # sym  WBO       # sym  WBO       # sym  WBO
 ---------------------------------------------------------------------------
     1   6 C    3.954 --    12 O    1.733     2 N    1.239    19 H    0.916
     2   7 N    3.536 --     1 C    1.239     3 C    1.020     5 C    0.998
                            12 O    0.196
     3   6 C    3.961 --     6 C    1.388     4 C    1.387     2 N    1.020
                             8 C    0.102
     4   6 C    3.989 --     9 C    1.447     3 C    1.387    11 H    0.965
                             7 C    0.109
     5   6 C    3.970 --     2 N    0.998    15 H    0.977    13 H    0.976
                            14 H    0.972
     6   6 C    3.991 --     7 C    1.449     3 C    1.388    10 H    0.964
                             9 C    0.109
     7   6 C    3.992 --     6 C    1.449     8 C    1.435    16 H    0.971
                             4 C    0.109
     8   6 C    3.992 --     9 C    1.437     7 C    1.435    18 H    0.971
                             3 C    0.102
     9   6 C    3.992 --     4 C    1.447     8 C    1.437    17 H    0.970
                             6 C    0.109
    10   1 H    0.999 --     6 C    0.964
    11   1 H    0.996 --     4 C    0.965
    12   8 O    2.043 --     1 C    1.733     2 N    0.196
    13   1 H    0.997 --     5 C    0.976
    14   1 H    0.996 --     5 C    0.972
    15   1 H    0.996 --     5 C    0.977
    16   1 H    0.998 --     7 C    0.971
    17   1 H    0.998 --     9 C    0.970
    18   1 H    0.999 --     8 C    0.971
    19   1 H    0.999 --     1 C    0.916
 ---------------------------------------------------------------------------

molecular dipole:
                 x           y           z       tot (Debye)
 q only:       -0.753      -0.937       0.856
   full:       -0.707      -1.048       1.109       4.273

           -------------------------------------------------
          | TOTAL ENERGY              -28.698867682087 Eh   |
          | GRADIENT NORM               0.000981325346 Eh/α |
          | HOMO-LUMO GAP               4.006685006770 eV   |
           -------------------------------------------------

 * finished run on 2023/11/18 at 08:24:07.977
