   * xtb version 6.5.0 (97a52f5) compiled by 'conda@d2599ee0d4f4' on 2022-05-15
          program call               : /home/liuchw/anaconda3/envs/xtbenv/bin/xtb --gfn 2 --chrg 0 --uhf 0 3_24_Index_0-opt-2-3-037_preQMOPTprefit_xyzformat.xyz --opt --input xtb-opt-2-3-037_constr.txt

   ID    Z sym.   atoms
    1    6 C      1, 3-9
    2    7 N      2
    3    1 H      10, 11, 13-19
    4    8 O      12
constraining angle 1 2 3 4 to   37.0794230°, actual value:   37.0794230°
constraining angle 1 2 5 14 to  220.9872362°, actual value: -139.0127638°
constraining angle 12 1 2 3 to  357.9977145°, actual value:   -2.0022855°

          :  Hamiltonian                  GFN2-xTB          :
 * total energy  :   -28.6898383 Eh     change       -0.3051923E-09 Eh
 * total energy  :   -28.6983305 Eh     change       -0.8492252E-02 Eh
 * total energy  :   -28.6994413 Eh     change       -0.1110758E-02 Eh
 * total energy  :   -28.6990131 Eh     change        0.4281282E-03 Eh
 * total energy  :   -28.7000346 Eh     change       -0.1021470E-02 Eh
 * total energy  :   -28.7001868 Eh     change       -0.1521764E-03 Eh
 * total energy  :   -28.7002909 Eh     change       -0.1040797E-03 Eh
 * total energy  :   -28.7003716 Eh     change       -0.8074570E-04 Eh
 * total energy  :   -28.7004091 Eh     change       -0.3751623E-04 Eh
 * total energy  :   -28.7004242 Eh     change       -0.1507943E-04 Eh
 * total energy  :   -28.7004316 Eh     change       -0.7347854E-05 Eh
 * total energy  :   -28.7004343 Eh     change       -0.2733285E-05 Eh
   *** GEOMETRY OPTIMIZATION CONVERGED AFTER 12 ITERATIONS ***

 final structure:
================
19
 xtb: 6.5.0 (97a52f5)
C            2.26723350651066        0.27126449673705        0.49535887565059
N            1.09415231087206       -0.27222224463424        0.89820604644642
C           -0.10739792758848       -0.09492640161723        0.17202268758395
C           -0.09268574691353       -0.07301707892769       -1.21990263224340
C            1.02677501369038       -0.97854109458077        2.15884273255039
C           -1.32261947120087        0.02954625695393        0.83996008119805
C           -2.49685614052943        0.18479676258460        0.12553324892391
C           -2.47802607674529        0.21572907440537       -1.25768792467932
C           -1.27149361977907        0.08758045382317       -1.92418131244119
H           -1.36200621521191        0.01846076259482        1.91786444554401
H            0.84088320123741       -0.17220806607787       -1.74729212258494
O            2.46585713022138        0.92043339248140       -0.49995472746270
H            2.03082958546559       -1.27965823469275        2.45529781742937
H            0.41534572600129       -1.87426164422325        2.04484396260390
H            0.60861825227387       -0.35519637232535        2.95323653698730
H           -3.43161683240155        0.28394885746246        0.65765482978505
H           -1.24503643340707        0.10488890272080       -3.00340024718477
H           -3.39686879502585        0.33735416704779       -1.81114866669279
H            3.07859453253050        0.04481400026783        1.21533137858613

          :  Hamiltonian                  GFN2-xTB          :
         :: total energy             -28.700434284498 Eh    ::
         :: gradient norm              0.000426481066 Eh/a0 ::
         :: HOMO-LUMO gap              3.976884094286 eV    ::
         :: SCC energy               -29.150415309188 Eh    ::
         :: -> dispersion             -0.015978833838 Eh    ::
         :: repulsion energy           0.449925707786 Eh    ::

    * Orbital Energies and Occupations

         #    Occupation            Energy/Eh            Energy/eV
      -------------------------------------------------------------
         1        2.0000           -0.7023976             -19.1132
       ...           ...                  ...                  ...
        14        2.0000           -0.5134702             -13.9722
        15        2.0000           -0.5080009             -13.8234
        16        2.0000           -0.4985908             -13.5673
        17        2.0000           -0.4945994             -13.4587
        18        2.0000           -0.4858404             -13.2204
        19        2.0000           -0.4834320             -13.1549
        20        2.0000           -0.4801643             -13.0659
        21        2.0000           -0.4407919             -11.9946
        22        2.0000           -0.4398310             -11.9684
        23        2.0000           -0.4248675             -11.5612
        24        2.0000           -0.4098071             -11.1514
        25        2.0000           -0.3976370             -10.8203
        26        2.0000           -0.3855960             -10.4926 (HOMO)
        27                         -0.2394482              -6.5157 (LUMO)
        28                         -0.2274763              -6.1899
        29                         -0.2004738              -5.4552
        30                         -0.0945618              -2.5732
        31                         -0.0063224              -0.1720
        32                          0.0708716               1.9285
        33                          0.1091334               2.9697
        34                          0.1318112               3.5868
        35                          0.1490020               4.0545
        36                          0.1584058               4.3104
        37                          0.1688897               4.5957
       ...                                ...                  ...
        49                          0.6702887              18.2395
      -------------------------------------------------------------
                  HL-Gap            0.1461478 Eh            3.9769 eV

     #   Z          covCN         q      C6AA      α(0)
     1   6 C        2.712     0.248    22.838     7.823
     2   7 N        2.734    -0.077    22.736     7.082
     3   6 C        2.920     0.069    26.456     8.435
     4   6 C        2.922    -0.037    28.929     8.820
     5   6 C        3.701    -0.048    21.600     6.646
     6   6 C        2.922    -0.049    29.212     8.863
     7   6 C        2.921    -0.029    28.735     8.790
     8   6 C        2.918    -0.034    28.838     8.806
     9   6 C        2.921    -0.027    28.665     8.780
    10   1 H        0.926     0.035     2.521     2.483
    11   1 H        0.926     0.063     2.159     2.298
    12   8 O        0.857    -0.400    21.682     6.243
    13   1 H        0.925     0.059     2.216     2.328
    14   1 H        0.924     0.062     2.173     2.305
    15   1 H        0.924     0.056     2.251     2.346
    16   1 H        0.926     0.034     2.524     2.485
    17   1 H        0.926     0.040     2.453     2.449
    18   1 H        0.926     0.035     2.516     2.480
    19   1 H        0.922     0.001     3.050     2.731

Wiberg/Mayer (AO) data.
largest (>0.10) Wiberg bond orders for each atom

     #   Z sym  total        # sym  WBO       # sym  WBO       # sym  WBO
 ---------------------------------------------------------------------------
     1   6 C    3.954 --    12 O    1.736     2 N    1.235    19 H    0.917
     2   7 N    3.542 --     1 C    1.235     3 C    1.029     5 C    0.999
                            12 O    0.193
     3   6 C    3.960 --     6 C    1.384     4 C    1.383     2 N    1.029
                             8 C    0.101
     4   6 C    3.989 --     9 C    1.450     3 C    1.383    11 H    0.965
                             7 C    0.109
     5   6 C    3.970 --     2 N    0.999    14 H    0.979    13 H    0.977
                            15 H    0.973
     6   6 C    3.991 --     7 C    1.448     3 C    1.384    10 H    0.967
                             9 C    0.108
     7   6 C    3.992 --     6 C    1.448     8 C    1.436    16 H    0.971
                             4 C    0.109
     8   6 C    3.992 --     7 C    1.436     9 C    1.434    18 H    0.971
                             3 C    0.101
     9   6 C    3.992 --     4 C    1.450     8 C    1.434    17 H    0.970
                             6 C    0.108
    10   1 H    0.999 --     6 C    0.967
    11   1 H    0.996 --     4 C    0.965
    12   8 O    2.045 --     1 C    1.736     2 N    0.193
    13   1 H    0.996 --     5 C    0.977
    14   1 H    0.996 --     5 C    0.979
    15   1 H    0.997 --     5 C    0.973
    16   1 H    0.998 --     7 C    0.971
    17   1 H    0.998 --     9 C    0.970
    18   1 H    0.999 --     8 C    0.971
    19   1 H    0.999 --     1 C    0.917
 ---------------------------------------------------------------------------

molecular dipole:
                 x           y           z       tot (Debye)
 q only:       -0.770      -0.848       0.921
   full:       -0.729      -0.941       1.184       4.267

           -------------------------------------------------
          | TOTAL ENERGY              -28.700434284498 Eh   |
          | GRADIENT NORM               0.000426481066 Eh/α |
          | HOMO-LUMO GAP               3.976884094286 eV   |
           -------------------------------------------------

 * finished run on 2023/11/18 at 08:17:58.787
