   * xtb version 6.5.0 (97a52f5) compiled by 'conda@d2599ee0d4f4' on 2022-05-15
          program call               : /home/liuchw/anaconda3/envs/xtbenv/bin/xtb --gfn 2 --chrg 0 --uhf 0 3_24_Index_0-opt-2-5-311_preQMOPTprefit_xyzformat.xyz --opt --input xtb-opt-2-5-311_constr.txt

   ID    Z sym.   atoms
    1    6 C      1, 3-9
    2    7 N      2
    3    1 H      10, 11, 13-19
    4    8 O      12
constraining angle 1 2 5 14 to  311.0069068°, actual value:  -48.9930932°
constraining angle 1 2 3 4 to   37.0954595°, actual value:   37.0954595°
constraining angle 12 1 2 3 to  357.9973827°, actual value:   -2.0026173°

          :  Hamiltonian                  GFN2-xTB          :
 * total energy  :   -28.6892970 Eh     change       -0.9045671E-09 Eh
 * total energy  :   -28.6976092 Eh     change       -0.8312189E-02 Eh
 * total energy  :   -28.6985200 Eh     change       -0.9107894E-03 Eh
 * total energy  :   -28.6979971 Eh     change        0.5229237E-03 Eh
 * total energy  :   -28.6992443 Eh     change       -0.1247199E-02 Eh
 * total energy  :   -28.6994262 Eh     change       -0.1818888E-03 Eh
 * total energy  :   -28.6995893 Eh     change       -0.1631646E-03 Eh
 * total energy  :   -28.6997356 Eh     change       -0.1462155E-03 Eh
 * total energy  :   -28.6997923 Eh     change       -0.5676034E-04 Eh
 * total energy  :   -28.6998131 Eh     change       -0.2080455E-04 Eh
 * total energy  :   -28.6998158 Eh     change       -0.2671662E-05 Eh
 * total energy  :   -28.6998176 Eh     change       -0.1807568E-05 Eh
   *** GEOMETRY OPTIMIZATION CONVERGED AFTER 12 ITERATIONS ***

 final structure:
================
19
 xtb: 6.5.0 (97a52f5)
C            2.28005794253988        0.14252983297981        0.41300694363001
N            1.09636162659829       -0.34435459523459        0.85744625666475
C           -0.11608755996722       -0.12836130177418        0.16378162764495
C           -0.14153336579346       -0.13015365637195       -1.22777205023283
C            1.06355761114241       -0.99598489076317        2.15182160116299
C           -1.29528120214384        0.11171594620027        0.86516298367498
C           -2.48026888945407        0.32050400099855        0.18355330603581
C           -2.50487025394048        0.30619354389713       -1.20012882884876
C           -1.33067585928356        0.08618121642513       -1.89938344378487
H           -1.29256500328773        0.15544382846967        1.94376182470455
H            0.76705499074132       -0.30027200500691       -1.78016348389615
O            2.47973727967941        0.76706498035303       -0.59776671432604
H            1.16541283509509       -0.27977767869497        2.97064452618018
H            1.86986477813663       -1.72880731142108        2.21239857971746
H            0.12302844320246       -1.53187472417633        2.26135430081367
H           -3.38741954587959        0.50371689142289        0.74058527087932
H           -1.33762528851621        0.07905183622612       -2.97902662307670
H           -3.43175264944101        0.47082970370077       -1.72847847736313
H            3.09668609057170       -0.10485761723016        1.11978840041988

          :  Hamiltonian                  GFN2-xTB          :
         :: total energy             -28.699817603201 Eh    ::
         :: gradient norm              0.000699677554 Eh/a0 ::
         :: HOMO-LUMO gap              3.952325554858 eV    ::
         :: SCC energy               -29.149538075423 Eh    ::
         :: -> dispersion             -0.015966910012 Eh    ::
         :: repulsion energy           0.449663753814 Eh    ::

    * Orbital Energies and Occupations

         #    Occupation            Energy/Eh            Energy/eV
      -------------------------------------------------------------
         1        2.0000           -0.7024236             -19.1139
       ...           ...                  ...                  ...
        14        2.0000           -0.5124765             -13.9452
        15        2.0000           -0.5088753             -13.8472
        16        2.0000           -0.4988380             -13.5741
        17        2.0000           -0.4950374             -13.4707
        18        2.0000           -0.4863850             -13.2352
        19        2.0000           -0.4827779             -13.1371
        20        2.0000           -0.4798693             -13.0579
        21        2.0000           -0.4410782             -12.0023
        22        2.0000           -0.4391534             -11.9500
        23        2.0000           -0.4256198             -11.5817
        24        2.0000           -0.4096107             -11.1461
        25        2.0000           -0.3975388             -10.8176
        26        2.0000           -0.3849651             -10.4754 (HOMO)
        27                         -0.2397198              -6.5231 (LUMO)
        28                         -0.2275293              -6.1914
        29                         -0.2010900              -5.4719
        30                         -0.0947044              -2.5770
        31                         -0.0085862              -0.2336
        32                          0.0795739               2.1653
        33                          0.1134273               3.0865
        34                          0.1338333               3.6418
        35                          0.1414237               3.8483
        36                          0.1548152               4.2127
        37                          0.1742794               4.7424
       ...                                ...                  ...
        49                          0.6708638              18.2551
      -------------------------------------------------------------
                  HL-Gap            0.1452453 Eh            3.9523 eV

     #   Z          covCN         q      C6AA      α(0)
     1   6 C        2.714     0.248    22.836     7.822
     2   7 N        2.735    -0.078    22.764     7.086
     3   6 C        2.919     0.069    26.457     8.435
     4   6 C        2.922    -0.037    28.920     8.819
     5   6 C        3.702    -0.050    21.631     6.650
     6   6 C        2.922    -0.050    29.230     8.866
     7   6 C        2.920    -0.029    28.734     8.790
     8   6 C        2.919    -0.034    28.841     8.807
     9   6 C        2.921    -0.026    28.661     8.779
    10   1 H        0.926     0.035     2.523     2.484
    11   1 H        0.926     0.063     2.169     2.303
    12   8 O        0.857    -0.399    21.661     6.240
    13   1 H        0.924     0.054     2.273     2.358
    14   1 H        0.924     0.057     2.234     2.338
    15   1 H        0.925     0.068     2.111     2.272
    16   1 H        0.926     0.034     2.526     2.486
    17   1 H        0.926     0.040     2.453     2.449
    18   1 H        0.926     0.035     2.516     2.481
    19   1 H        0.922     0.002     3.025     2.720

Wiberg/Mayer (AO) data.
largest (>0.10) Wiberg bond orders for each atom

     #   Z sym  total        # sym  WBO       # sym  WBO       # sym  WBO
 ---------------------------------------------------------------------------
     1   6 C    3.954 --    12 O    1.738     2 N    1.233    19 H    0.920
     2   7 N    3.539 --     1 C    1.233     3 C    1.032     5 C    0.995
                            12 O    0.192
     3   6 C    3.960 --     4 C    1.382     6 C    1.382     2 N    1.032
                             8 C    0.101
     4   6 C    3.989 --     9 C    1.449     3 C    1.382    11 H    0.965
                             7 C    0.109
     5   6 C    3.970 --     2 N    0.995    15 H    0.979    14 H    0.978
                            13 H    0.977
     6   6 C    3.990 --     7 C    1.449     3 C    1.382    10 H    0.967
                             9 C    0.108
     7   6 C    3.992 --     6 C    1.449     8 C    1.435    16 H    0.971
                             4 C    0.109
     8   6 C    3.992 --     9 C    1.435     7 C    1.435    18 H    0.971
                             3 C    0.101
     9   6 C    3.992 --     4 C    1.449     8 C    1.435    17 H    0.970
                             6 C    0.108
    10   1 H    0.999 --     6 C    0.967
    11   1 H    0.996 --     4 C    0.965
    12   8 O    2.045 --     1 C    1.738     2 N    0.192
    13   1 H    0.997 --     5 C    0.977
    14   1 H    0.996 --     5 C    0.978
    15   1 H    0.995 --     5 C    0.979
    16   1 H    0.998 --     7 C    0.971
    17   1 H    0.998 --     9 C    0.970
    18   1 H    0.999 --     8 C    0.971
    19   1 H    0.999 --     1 C    0.920
 ---------------------------------------------------------------------------

molecular dipole:
                 x           y           z       tot (Debye)
 q only:       -0.778      -0.793       0.962
   full:       -0.732      -0.879       1.225       4.259

           -------------------------------------------------
          | TOTAL ENERGY              -28.699817603201 Eh   |
          | GRADIENT NORM               0.000699677554 Eh/α |
          | HOMO-LUMO GAP               3.952325554858 eV   |
           -------------------------------------------------

 * finished run on 2023/11/18 at 08:22:16.031
