   * xtb version 6.5.0 (97a52f5) compiled by 'conda@d2599ee0d4f4' on 2022-05-15
          program call               : /home/liuchw/anaconda3/envs/xtbenv/bin/xtb --gfn 2 --chrg 0 --uhf 0 3_24_Index_0-opt-2-3-217_preQMOPTprefit_xyzformat.xyz --opt --input xtb-opt-2-3-217_constr.txt

   ID    Z sym.   atoms
    1    6 C      1, 3-9
    2    7 N      2
    3    1 H      10, 11, 13-19
    4    8 O      12
constraining angle 1 2 3 4 to  217.0791520°, actual value: -142.9208480°
constraining angle 1 2 5 14 to  220.9882976°, actual value: -139.0117024°
constraining angle 12 1 2 3 to  357.9971119°, actual value:   -2.0028881°

          :  Hamiltonian                  GFN2-xTB          :
 * total energy  :   -28.6896280 Eh     change       -0.3505178E-09 Eh
 * total energy  :   -28.6979543 Eh     change       -0.8326361E-02 Eh
 * total energy  :   -28.6990148 Eh     change       -0.1060506E-02 Eh
 * total energy  :   -28.6991871 Eh     change       -0.1722639E-03 Eh
 * total energy  :   -28.6998341 Eh     change       -0.6470188E-03 Eh
 * total energy  :   -28.7000515 Eh     change       -0.2174249E-03 Eh
 * total energy  :   -28.7002245 Eh     change       -0.1729245E-03 Eh
 * total energy  :   -28.7003526 Eh     change       -0.1281574E-03 Eh
 * total energy  :   -28.7003916 Eh     change       -0.3900023E-04 Eh
 * total energy  :   -28.7004059 Eh     change       -0.1424101E-04 Eh
 * total energy  :   -28.7004131 Eh     change       -0.7212626E-05 Eh
 * total energy  :   -28.7004165 Eh     change       -0.3439151E-05 Eh
   *** GEOMETRY OPTIMIZATION CONVERGED AFTER 12 ITERATIONS ***

 final structure:
================
19
 xtb: 6.5.0 (97a52f5)
C            1.21128056804535        0.49259173521488        2.20307248513382
N            0.98887600192335       -0.22436363957744        1.07618875952538
C           -0.18158129730105       -0.05861403015604        0.29780797532879
C           -0.78505047632254       -1.15620078969932       -0.30980729091668
C            1.91500726239084       -1.26776383448204        0.69371491515208
C           -0.73406098667734        1.20627954625912        0.11867773636833
C           -1.87394586295741        1.36323985452546       -0.64780721408483
C           -2.47227449208474        0.27045698283192       -1.25135434757580
C           -1.92220130572191       -0.98742844815450       -1.07894655837708
H           -0.27558735966369        2.06191617932792        0.58499680313693
H           -0.38000658851596       -2.14779903999720       -0.18174407757925
O            0.50826031858818        1.35297270784677        2.66886581477523
H            2.86914066798268       -1.10062809177825        1.19185106412889
H            2.07646771920164       -1.23862446885088       -0.38433850541239
H            1.55117458803456       -2.25872467569171        0.97622175054412
H           -2.29344840929684        2.34983854610568       -0.77694688799957
H           -2.38101963252382       -1.84837200794155       -1.54267817797688
H           -3.36083810403391        0.39726987001638       -1.85132362131581
H            2.16349236893234        0.19274060420100        2.68413639714477

          :  Hamiltonian                  GFN2-xTB          :
         :: total energy             -28.700416519713 Eh    ::
         :: gradient norm              0.000661370075 Eh/a0 ::
         :: HOMO-LUMO gap              3.985275092956 eV    ::
         :: SCC energy               -29.150460151452 Eh    ::
         :: -> dispersion             -0.015982160040 Eh    ::
         :: repulsion energy           0.449988149810 Eh    ::

    * Orbital Energies and Occupations

         #    Occupation            Energy/Eh            Energy/eV
      -------------------------------------------------------------
         1        2.0000           -0.7022118             -19.1082
       ...           ...                  ...                  ...
        14        2.0000           -0.5133428             -13.9688
        15        2.0000           -0.5078158             -13.8184
        16        2.0000           -0.4986303             -13.5684
        17        2.0000           -0.4946211             -13.4593
        18        2.0000           -0.4859953             -13.2246
        19        2.0000           -0.4834183             -13.1545
        20        2.0000           -0.4803571             -13.0712
        21        2.0000           -0.4407616             -11.9937
        22        2.0000           -0.4397857             -11.9672
        23        2.0000           -0.4246781             -11.5561
        24        2.0000           -0.4099267             -11.1547
        25        2.0000           -0.3976983             -10.8219
        26        2.0000           -0.3857280             -10.4962 (HOMO)
        27                         -0.2392718              -6.5109 (LUMO)
        28                         -0.2275951              -6.1932
        29                         -0.2006933              -5.4611
        30                         -0.0947834              -2.5792
        31                         -0.0062808              -0.1709
        32                          0.0711332               1.9356
        33                          0.1090504               2.9674
        34                          0.1316361               3.5820
        35                          0.1491261               4.0579
        36                          0.1584543               4.3118
        37                          0.1684716               4.5843
       ...                                ...                  ...
        49                          0.6703920              18.2423
      -------------------------------------------------------------
                  HL-Gap            0.1464562 Eh            3.9853 eV

     #   Z          covCN         q      C6AA      α(0)
     1   6 C        2.712     0.248    22.837     7.822
     2   7 N        2.735    -0.077    22.745     7.083
     3   6 C        2.921     0.069    26.454     8.434
     4   6 C        2.922    -0.048    29.203     8.862
     5   6 C        3.701    -0.048    21.598     6.646
     6   6 C        2.922    -0.037    28.918     8.819
     7   6 C        2.921    -0.026    28.663     8.780
     8   6 C        2.919    -0.034    28.835     8.806
     9   6 C        2.921    -0.029    28.733     8.790
    10   1 H        0.926     0.063     2.167     2.302
    11   1 H        0.926     0.035     2.521     2.483
    12   8 O        0.857    -0.400    21.687     6.244
    13   1 H        0.925     0.059     2.217     2.328
    14   1 H        0.924     0.062     2.176     2.307
    15   1 H        0.924     0.056     2.252     2.347
    16   1 H        0.926     0.040     2.452     2.449
    17   1 H        0.926     0.035     2.523     2.484
    18   1 H        0.926     0.035     2.514     2.479
    19   1 H        0.922     0.000     3.051     2.732

Wiberg/Mayer (AO) data.
largest (>0.10) Wiberg bond orders for each atom

     #   Z sym  total        # sym  WBO       # sym  WBO       # sym  WBO
 ---------------------------------------------------------------------------
     1   6 C    3.954 --    12 O    1.736     2 N    1.235    19 H    0.917
     2   7 N    3.541 --     1 C    1.235     3 C    1.028     5 C    0.998
                            12 O    0.194
     3   6 C    3.960 --     4 C    1.385     6 C    1.383     2 N    1.028
                             8 C    0.101
     4   6 C    3.991 --     9 C    1.448     3 C    1.385    11 H    0.967
                             7 C    0.108
     5   6 C    3.970 --     2 N    0.998    14 H    0.979    13 H    0.977
                            15 H    0.973
     6   6 C    3.989 --     7 C    1.450     3 C    1.383    10 H    0.965
                             9 C    0.109
     7   6 C    3.992 --     6 C    1.450     8 C    1.435    16 H    0.970
                             4 C    0.108
     8   6 C    3.992 --     9 C    1.436     7 C    1.435    18 H    0.971
                             3 C    0.101
     9   6 C    3.992 --     4 C    1.448     8 C    1.436    17 H    0.971
                             6 C    0.109
    10   1 H    0.996 --     6 C    0.965
    11   1 H    0.999 --     4 C    0.967
    12   8 O    2.044 --     1 C    1.736     2 N    0.194
    13   1 H    0.996 --     5 C    0.977
    14   1 H    0.996 --     5 C    0.979
    15   1 H    0.997 --     5 C    0.973
    16   1 H    0.998 --     7 C    0.970
    17   1 H    0.998 --     9 C    0.971
    18   1 H    0.999 --     8 C    0.971
    19   1 H    0.999 --     1 C    0.917
 ---------------------------------------------------------------------------

molecular dipole:
                 x           y           z       tot (Debye)
 q only:        0.437      -0.979      -1.010
   full:        0.630      -1.185      -1.011       4.271

           -------------------------------------------------
          | TOTAL ENERGY              -28.700416519713 Eh   |
          | GRADIENT NORM               0.000661370075 Eh/α |
          | HOMO-LUMO GAP               3.985275092956 eV   |
           -------------------------------------------------

 * finished run on 2023/11/18 at 08:19:33.994
