                               Psi4 1.6 release

  ==> Input File <==

--------------------------------------------------------------------------
molecule {
0 1
 C    2.214930    0.457523    0.604315
 N    1.077200   -0.194685    0.941868
 C   -0.108775   -0.086505    0.177279
 C   -0.046429   -0.008147   -1.211378
 C    1.025974   -0.957204    2.170132
 C   -1.353209   -0.088110    0.801645
 C   -2.509987    0.001072    0.048568
 C   -2.444406    0.090418   -1.330604
 C   -1.208507    0.086211   -1.954264
 H   -1.430065   -0.146650    1.875904
 H    0.910406   -0.011345   -1.705403
 O    2.394209    1.159665   -0.358250
 H    0.499841   -1.896669    1.994085
 H    0.510343   -0.412175    2.965186
 H    2.039017   -1.177755    2.502449
 H   -3.468103    0.002685    0.547241
 H   -1.145180    0.149420   -3.030231
 H   -3.349840    0.161367   -1.914175
 H    3.016261    0.269666    1.346216
}
memory 20GB
set_num_threads(5)
psi4_io.set_default_path("/scratch/liuchw/Psi4-3_24_Index_0-farH_in17")
set freeze_core True
E, wfn = energy('wb97x-d/6-311+G*',return_wfn=True)
oeprop(wfn,"WIBERG_LOWDIN_INDICES")
clean()
--------------------------------------------------------------------------

    Molecular point group: c1

    Geometry (in Angstrom), charge = 0, multiplicity = 1:

       Center              X                  Y                   Z               Mass
    ------------   -----------------  -----------------  -----------------  -----------------
         C            2.231379913703     0.408064817925     0.576593450331    12.000000000000
         N            1.093649913703    -0.244143182075     0.914146450331    14.003074004430
         C           -0.092325086297    -0.135963182075     0.149557450331    12.000000000000
         C           -0.029979086297    -0.057605182075    -1.239099549669    12.000000000000
         C            1.042423913703    -1.006662182075     2.142410450331    12.000000000000
         C           -1.336759086297    -0.137568182075     0.773923450331    12.000000000000
         C           -2.493537086297    -0.048386182075     0.020846450331    12.000000000000
         C           -2.427956086297     0.040959817925    -1.358325549669    12.000000000000
         C           -1.192057086297     0.036752817925    -1.981985549669    12.000000000000
         H           -1.413615086297    -0.196108182075     1.848182450331     1.007825032230
         H            0.926855913703    -0.060803182075    -1.733124549669     1.007825032230
         O            2.410658913703     1.110206817925    -0.385971549669    15.994914619570
         H            0.516290913703    -1.946127182075     1.966363450331     1.007825032230
         H            0.526792913703    -0.461633182075     2.937464450331     1.007825032230
         H            2.055466913703    -1.227213182075     2.474727450331     1.007825032230
         H           -3.451653086297    -0.046773182075     0.519519450331     1.007825032230
         H           -1.128730086297     0.099961817925    -3.057952549669     1.007825032230
         H           -3.333390086297     0.111908817925    -1.941896549669     1.007825032230
         H            3.032710913703     0.220207817925     1.318494450331     1.007825032230

  Charge       = 0
  Multiplicity = 1
  Basis Set: 6-311+G*
    Blend: 6-311+G*
  Basis Set: (6-311+G* AUX)
    Blend: HEAVY-AUG-CC-PVTZ-JKFIT

    Orbital Energies [Eh]
    ---------------------

    Doubly Occupied:

       1A    -19.222394     2A    -14.484907     3A    -10.390261
       4A    -10.337620     5A    -10.334305     6A    -10.295352
       7A    -10.293259     8A    -10.290153     9A    -10.288095
      10A    -10.287228    11A     -1.158369    12A     -1.071652
      13A     -0.966428    14A     -0.865515    15A     -0.859987
      16A     -0.822839    17A     -0.752434    18A     -0.712080
      19A     -0.672741    20A     -0.617638    21A     -0.608802
      22A     -0.577366    23A     -0.575290    24A     -0.545115
      25A     -0.537252    26A     -0.516045    27A     -0.509557
      28A     -0.501142    29A     -0.489557    30A     -0.466839
      31A     -0.450758    32A     -0.438010    33A     -0.379392
      34A     -0.353487    35A     -0.335319    36A     -0.307780

  @DF-RKS Final Energy:  -440.19954936387899

   => Energetics <=

    Nuclear Repulsion Energy =            499.6718043017019681
    One-Electron Energy =               -1585.9434249166993141
    Two-Electron Energy =                 689.0343707813601668
    DFT Exchange-Correlation Energy =     -42.9522165159817746
    Empirical Dispersion Energy =          -0.0100830142600787
    VV10 Nonlocal Energy =                  0.0000000000000000
    Total Energy =                       -440.1995493638790435
 Dipole X            :          1.5563152           -2.1189654           -0.5626502
 Dipole Y            :          2.3450059           -3.2812677           -0.9362619
 Dipole Z            :         -3.0132157            4.0564000            1.0431843
 Magnitude           :                                                    1.5104287
*** Psi4 exiting successfully. Buy a developer a beer!
