                               Psi4 1.6 release

  ==> Input File <==

--------------------------------------------------------------------------
molecule {
0 1
 C    1.211281    0.492592    2.203072
 N    0.988876   -0.224364    1.076189
 C   -0.181581   -0.058614    0.297808
 C   -0.785050   -1.156201   -0.309807
 C    1.915007   -1.267764    0.693715
 C   -0.734061    1.206280    0.118678
 C   -1.873946    1.363240   -0.647807
 C   -2.472274    0.270457   -1.251354
 C   -1.922201   -0.987428   -1.078947
 H   -0.275587    2.061916    0.584997
 H   -0.380007   -2.147799   -0.181744
 O    0.508260    1.352973    2.668866
 H    2.869141   -1.100628    1.191851
 H    2.076468   -1.238624   -0.384339
 H    1.551175   -2.258725    0.976222
 H   -2.293448    2.349839   -0.776947
 H   -2.381020   -1.848372   -1.542678
 H   -3.360838    0.397270   -1.851324
 H    2.163492    0.192741    2.684136
}
memory 20GB
set_num_threads(5)
psi4_io.set_default_path("/scratch/liuchw/Psi4-3_24_Index_0-farH_in17")
set freeze_core True
E, wfn = energy('wb97x-d/6-311+G*',return_wfn=True)
oeprop(wfn,"WIBERG_LOWDIN_INDICES")
clean()
--------------------------------------------------------------------------

    Molecular point group: c1

    Geometry (in Angstrom), charge = 0, multiplicity = 1:

       Center              X                  Y                   Z               Mass
    ------------   -----------------  -----------------  -----------------  -----------------
         C            1.479055555664     0.394647906090     1.767972592286    12.000000000000
         N            1.256650555664    -0.322308093910     0.641089592286    14.003074004430
         C            0.086193555664    -0.156558093910    -0.137291407714    12.000000000000
         C           -0.517275444336    -1.254145093910    -0.744906407714    12.000000000000
         C            2.182781555664    -1.365708093910     0.258615592286    12.000000000000
         C           -0.466286444336     1.108335906090    -0.316421407714    12.000000000000
         C           -1.606171444336     1.265295906090    -1.082906407714    12.000000000000
         C           -2.204499444336     0.172512906090    -1.686453407714    12.000000000000
         C           -1.654426444336    -1.085372093910    -1.514046407714    12.000000000000
         H           -0.007812444336     1.963971906090     0.149897592286     1.007825032230
         H           -0.112232444336    -2.245743093910    -0.616843407714     1.007825032230
         O            0.776034555664     1.255028906090     2.233766592286    15.994914619570
         H            3.136915555664    -1.198572093910     0.756751592286     1.007825032230
         H            2.344242555664    -1.336568093910    -0.819438407714     1.007825032230
         H            1.818949555664    -2.356669093910     0.541122592286     1.007825032230
         H           -2.025673444336     2.251894906090    -1.212046407714     1.007825032230
         H           -2.113245444336    -1.946316093910    -1.977777407714     1.007825032230
         H           -3.093063444336     0.299325906090    -2.286423407714     1.007825032230
         H            2.431266555664     0.094796906090     2.249036592286     1.007825032230

  Charge       = 0
  Multiplicity = 1
  Basis Set: 6-311+G*
    Blend: 6-311+G*
  Basis Set: (6-311+G* AUX)
    Blend: HEAVY-AUG-CC-PVTZ-JKFIT

    Orbital Energies [Eh]
    ---------------------

    Doubly Occupied:

       1A    -19.222222     2A    -14.484511     3A    -10.390092
       4A    -10.337334     5A    -10.334145     6A    -10.295324
       7A    -10.293250     8A    -10.290225     9A    -10.288178
      10A    -10.287405    11A     -1.158234    12A     -1.071394
      13A     -0.966425    14A     -0.865454    15A     -0.859942
      16A     -0.822695    17A     -0.752269    18A     -0.712175
      19A     -0.672641    20A     -0.617504    21A     -0.608852
      22A     -0.577621    23A     -0.575102    24A     -0.544720
      25A     -0.537316    26A     -0.516064    27A     -0.509406
      28A     -0.500612    29A     -0.489647    30A     -0.466763
      31A     -0.450669    32A     -0.438105    33A     -0.378952
      34A     -0.353530    35A     -0.335266    36A     -0.307981

  @DF-RKS Final Energy:  -440.19956086539241

   => Energetics <=

    Nuclear Repulsion Energy =            499.7016702611896903
    One-Electron Energy =               -1586.0090783187865782
    Two-Electron Energy =                 689.0700986858994384
    DFT Exchange-Correlation Energy =     -42.9521597222762992
    Empirical Dispersion Energy =          -0.0100917714186935
    VV10 Nonlocal Energy =                  0.0000000000000000
    Total Energy =                       -440.1995608653923568
 Dipole X            :         -1.6121148            2.2306441            0.6185293
 Dipole Y            :          3.1136014           -4.1871583           -1.0735569
 Dipole Z            :          2.1439239           -3.0057688           -0.8618449
 Magnitude           :                                                    1.5092645
*** Psi4 exiting successfully. Buy a developer a beer!
