                               Psi4 1.6 release

  ==> Input File <==

--------------------------------------------------------------------------
molecule {
0 1
 C    1.850182   -1.455005    0.640780
 N    1.017574   -0.454642    0.995216
 C   -0.163934   -0.214369    0.237891
 C   -0.303813    0.952340   -0.502049
 C    1.358609    0.503956    2.019636
 C   -1.160141   -1.180250    0.205545
 C   -2.301561   -0.967085   -0.546425
 C   -2.452570    0.205689   -1.266543
 C   -1.451953    1.162482   -1.244250
 H   -1.029418   -2.095859    0.761176
 H    0.482263    1.692842   -0.499483
 O    1.682394   -2.226685   -0.269579
 H    2.152717    0.099273    2.644897
 H    0.483207    0.703737    2.639608
 H    1.701198    1.448707    1.588784
 H   -3.074414   -1.720660   -0.570563
 H   -1.558931    2.072051   -1.816610
 H   -3.344875    0.371164   -1.851455
 H    2.737149   -1.498902    1.304011
}
memory 20GB
set_num_threads(5)
psi4_io.set_default_path("/scratch/liuchw/Psi4-3_24_Index_0-farH_in17")
set freeze_core True
E, wfn = energy('wb97x-d/6-311+G*',return_wfn=True)
oeprop(wfn,"WIBERG_LOWDIN_INDICES")
clean()
--------------------------------------------------------------------------

    Molecular point group: c1

    Geometry (in Angstrom), charge = 0, multiplicity = 1:

       Center              X                  Y                   Z               Mass
    ------------   -----------------  -----------------  -----------------  -----------------
         C            1.967202094218    -1.064031416287     0.578645242076    12.000000000000
         N            1.134594094218    -0.063668416287     0.933081242076    14.003074004430
         C           -0.046913905782     0.176604583713     0.175756242076    12.000000000000
         C           -0.186792905782     1.343313583713    -0.564183757924    12.000000000000
         C            1.475629094218     0.894929583713     1.957501242076    12.000000000000
         C           -1.043120905782    -0.789276416287     0.143410242076    12.000000000000
         C           -2.184540905782    -0.576111416287    -0.608559757924    12.000000000000
         C           -2.335549905782     0.596662583713    -1.328677757924    12.000000000000
         C           -1.334932905782     1.553455583713    -1.306384757924    12.000000000000
         H           -0.912397905782    -1.704885416287     0.699041242076     1.007825032230
         H            0.599283094218     2.083815583713    -0.561617757924     1.007825032230
         O            1.799414094218    -1.835711416287    -0.331713757924    15.994914619570
         H            2.269737094218     0.490246583713     2.582762242076     1.007825032230
         H            0.600227094218     1.094710583713     2.577473242076     1.007825032230
         H            1.818218094218     1.839680583713     1.526649242076     1.007825032230
         H           -2.957393905782    -1.329686416287    -0.632697757924     1.007825032230
         H           -1.441910905782     2.463024583713    -1.878744757924     1.007825032230
         H           -3.227854905782     0.762137583713    -1.913589757924     1.007825032230
         H            2.854169094218    -1.107928416287     1.241876242076     1.007825032230

  Charge       = 0
  Multiplicity = 1
  Basis Set: 6-311+G*
    Blend: 6-311+G*
  Basis Set: (6-311+G* AUX)
    Blend: HEAVY-AUG-CC-PVTZ-JKFIT

    Orbital Energies [Eh]
    ---------------------

    Doubly Occupied:

       1A    -19.215502     2A    -14.476038     3A    -10.384449
       4A    -10.333782     5A    -10.331452     6A    -10.297240
       7A    -10.295210     8A    -10.293698     9A    -10.293071
      10A    -10.292513    11A     -1.152241    12A     -1.064856
      13A     -0.968232    14A     -0.864640    15A     -0.861399
      16A     -0.820209    17A     -0.748684    18A     -0.716381
      19A     -0.671874    20A     -0.615369    21A     -0.609974
      22A     -0.577746    23A     -0.572562    24A     -0.542284
      25A     -0.535632    26A     -0.518737    27A     -0.507837
      28A     -0.499387    29A     -0.482598    30A     -0.466907
      31A     -0.450445    32A     -0.441110    33A     -0.360378
      34A     -0.349692    35A     -0.337502    36A     -0.319597

  @DF-RKS Final Energy:  -440.19861269375349

   => Energetics <=

    Nuclear Repulsion Energy =            499.7735518564712152
    One-Electron Energy =               -1586.2385598337195916
    Two-Electron Energy =                 689.2246225397499302
    DFT Exchange-Correlation Energy =     -42.9479578046551467
    Empirical Dispersion Energy =          -0.0102694515997789
    VV10 Nonlocal Energy =                  0.0000000000000000
    Total Energy =                       -440.1986126937534323
 Dipole X            :          0.0944415           -0.3676901           -0.2732486
 Dipole Y            :         -3.1113058            4.2953948            1.1840890
 Dipole Z            :         -2.4740286            3.4091650            0.9351364
 Magnitude           :                                                    1.5333661
*** Psi4 exiting successfully. Buy a developer a beer!
