                               Psi4 1.6 release

  ==> Input File <==

--------------------------------------------------------------------------
molecule {
0 1
 C    2.195317    0.438753    0.584089
 N    1.056941   -0.189348    0.961591
 C   -0.132943   -0.103092    0.195966
 C   -0.075288   -0.089025   -1.194133
 C    1.087987   -1.035833    2.137562
 C   -1.367895    0.035128    0.824653
 C   -2.523377    0.148921    0.074380
 C   -2.464177    0.142750   -1.308656
 C   -1.236264    0.029549   -1.936530
 H   -1.434961    0.077213    1.901731
 H    0.876000   -0.175126   -1.691720
 O    2.371364    1.095205   -0.411104
 H    1.526444   -2.008310    1.893778
 H    0.082819   -1.199638    2.513799
 H    1.683596   -0.570969    2.923458
 H   -3.473977    0.254771    0.576247
 H   -1.177558    0.032387   -3.014621
 H   -3.368645    0.233636   -1.890925
 H    2.998299    0.281813    1.331019
}
memory 20GB
set_num_threads(5)
psi4_io.set_default_path("/scratch/liuchw/Psi4-3_24_Index_0-farH_in17")
set freeze_core True
E, wfn = energy('wb97x-d/6-311+G*',return_wfn=True)
oeprop(wfn,"WIBERG_LOWDIN_INDICES")
clean()
--------------------------------------------------------------------------

    Molecular point group: c1

    Geometry (in Angstrom), charge = 0, multiplicity = 1:

       Center              X                  Y                   Z               Mass
    ------------   -----------------  -----------------  -----------------  -----------------
         C            2.223268603769     0.390082927370     0.554504423341    12.000000000000
         N            1.084892603769    -0.238018072630     0.932006423341    14.003074004430
         C           -0.104991396231    -0.151762072630     0.166381423341    12.000000000000
         C           -0.047336396231    -0.137695072630    -1.223717576659    12.000000000000
         C            1.115938603769    -1.084503072630     2.107977423341    12.000000000000
         C           -1.339943396231    -0.013542072630     0.795068423341    12.000000000000
         C           -2.495425396231     0.100250927370     0.044795423341    12.000000000000
         C           -2.436225396231     0.094079927370    -1.338240576659    12.000000000000
         C           -1.208312396231    -0.019121072630    -1.966114576659    12.000000000000
         H           -1.407009396231     0.028542927370     1.872146423341     1.007825032230
         H            0.903951603769    -0.223796072630    -1.721304576659     1.007825032230
         O            2.399315603769     1.046534927370    -0.440688576659    15.994914619570
         H            1.554395603769    -2.056980072630     1.864193423341     1.007825032230
         H            0.110770603769    -1.248308072630     2.484214423341     1.007825032230
         H            1.711547603769    -0.619639072630     2.893873423341     1.007825032230
         H           -3.446025396231     0.206100927370     0.546662423341     1.007825032230
         H           -1.149606396231    -0.016283072630    -3.044205576659     1.007825032230
         H           -3.340693396231     0.184965927370    -1.920509576659     1.007825032230
         H            3.026250603769     0.233142927370     1.301434423341     1.007825032230

  Charge       = 0
  Multiplicity = 1
  Basis Set: 6-311+G*
    Blend: 6-311+G*
  Basis Set: (6-311+G* AUX)
    Blend: HEAVY-AUG-CC-PVTZ-JKFIT

    Orbital Energies [Eh]
    ---------------------

    Doubly Occupied:

       1A    -19.221344     2A    -14.481984     3A    -10.388477
       4A    -10.337244     5A    -10.332976     6A    -10.295834
       7A    -10.293392     8A    -10.290216     9A    -10.288554
      10A    -10.287627    11A     -1.156855    12A     -1.069084
      13A     -0.966568    14A     -0.865539    15A     -0.859747
      16A     -0.821026    17A     -0.751041    18A     -0.712819
      19A     -0.672365    20A     -0.616399    21A     -0.608442
      22A     -0.575878    23A     -0.574886    24A     -0.545702
      25A     -0.537149    26A     -0.516421    27A     -0.508644
      28A     -0.500766    29A     -0.487354    30A     -0.466429
      31A     -0.450321    32A     -0.438497    33A     -0.377262
      34A     -0.352655    35A     -0.334890    36A     -0.307400

  @DF-RKS Final Energy:  -440.19644592370759

   => Energetics <=

    Nuclear Repulsion Energy =            499.3605744792843097
    One-Electron Energy =               -1585.3614418380327606
    Two-Electron Energy =                 688.7663076211412090
    DFT Exchange-Correlation Energy =     -42.9519334592505615
    Empirical Dispersion Energy =          -0.0099527268497547
    VV10 Nonlocal Energy =                  0.0000000000000000
    Total Energy =                       -440.1964459237076426
 Dipole X            :          1.3238477           -1.9007027           -0.5768550
 Dipole Y            :          2.3788144           -3.2869107           -0.9080963
 Dipole Z            :         -2.9452412            4.0042682            1.0590270
 Magnitude           :                                                    1.5096154
*** Psi4 exiting successfully. Buy a developer a beer!
