                               Psi4 1.6 release

  ==> Input File <==

--------------------------------------------------------------------------
molecule {
0 1
 C    2.280058    0.142530    0.413007
 N    1.096362   -0.344355    0.857446
 C   -0.116088   -0.128361    0.163782
 C   -0.141533   -0.130154   -1.227772
 C    1.063558   -0.995985    2.151822
 C   -1.295281    0.111716    0.865163
 C   -2.480269    0.320504    0.183553
 C   -2.504870    0.306194   -1.200129
 C   -1.330676    0.086181   -1.899383
 H   -1.292565    0.155444    1.943762
 H    0.767055   -0.300272   -1.780163
 O    2.479737    0.767065   -0.597767
 H    1.165413   -0.279778    2.970645
 H    1.869865   -1.728807    2.212399
 H    0.123028   -1.531875    2.261354
 H   -3.387420    0.503717    0.740585
 H   -1.337625    0.079052   -2.979027
 H   -3.431753    0.470830   -1.728478
 H    3.096686   -0.104858    1.119788
}
memory 20GB
set_num_threads(5)
psi4_io.set_default_path("/scratch/liuchw/Psi4-3_24_Index_0-farH_in17")
set freeze_core True
E, wfn = energy('wb97x-d/6-311+G*',return_wfn=True)
oeprop(wfn,"WIBERG_LOWDIN_INDICES")
clean()
--------------------------------------------------------------------------

    Molecular point group: c1

    Geometry (in Angstrom), charge = 0, multiplicity = 1:

       Center              X                  Y                   Z               Mass
    ------------   -----------------  -----------------  -----------------  -----------------
         C            2.292880405773     0.133344654371     0.408236953704    12.000000000000
         N            1.109184405773    -0.353540345629     0.852675953704    14.003074004430
         C           -0.103265594227    -0.137546345629     0.159011953704    12.000000000000
         C           -0.128710594227    -0.139339345629    -1.232542046296    12.000000000000
         C            1.076380405773    -1.005170345629     2.147051953704    12.000000000000
         C           -1.282458594227     0.102530654371     0.860392953704    12.000000000000
         C           -2.467446594227     0.311318654371     0.178782953704    12.000000000000
         C           -2.492047594227     0.297008654371    -1.204899046296    12.000000000000
         C           -1.317853594227     0.076995654371    -1.904153046296    12.000000000000
         H           -1.279742594227     0.146258654371     1.938991953704     1.007825032230
         H            0.779877405773    -0.309457345629    -1.784933046296     1.007825032230
         O            2.492559405773     0.757879654371    -0.602537046296    15.994914619570
         H            1.178235405773    -0.288963345629     2.965874953704     1.007825032230
         H            1.882687405773    -1.737992345629     2.207628953704     1.007825032230
         H            0.135850405773    -1.541060345629     2.256583953704     1.007825032230
         H           -3.374597594227     0.494531654371     0.735814953704     1.007825032230
         H           -1.324802594227     0.069866654371    -2.983797046296     1.007825032230
         H           -3.418930594227     0.461644654371    -1.733248046296     1.007825032230
         H            3.109508405773    -0.114043345629     1.115017953704     1.007825032230

  Charge       = 0
  Multiplicity = 1
  Basis Set: 6-311+G*
    Blend: 6-311+G*
  Basis Set: (6-311+G* AUX)
    Blend: HEAVY-AUG-CC-PVTZ-JKFIT

    Orbital Energies [Eh]
    ---------------------

    Doubly Occupied:

       1A    -19.223206     2A    -14.483228     3A    -10.389901
       4A    -10.337422     5A    -10.333651     6A    -10.294855
       7A    -10.292975     8A    -10.289840     9A    -10.287474
      10A    -10.286806    11A     -1.158393    12A     -1.070957
      13A     -0.966040    14A     -0.865504    15A     -0.859593
      16A     -0.821843    17A     -0.751754    18A     -0.711892
      19A     -0.671932    20A     -0.616542    21A     -0.608861
      22A     -0.577092    23A     -0.575248    24A     -0.545469
      25A     -0.536940    26A     -0.516253    27A     -0.509376
      28A     -0.500369    29A     -0.488877    30A     -0.466286
      31A     -0.450759    32A     -0.437584    33A     -0.380277
      34A     -0.353332    35A     -0.335111    36A     -0.306141

  @DF-RKS Final Energy:  -440.19796364978413

   => Energetics <=

    Nuclear Repulsion Energy =            499.5156943663527045
    One-Electron Energy =               -1585.6542872706377239
    Two-Electron Energy =                 688.9030249505159418
    DFT Exchange-Correlation Energy =     -42.9523107246665887
    Empirical Dispersion Energy =          -0.0100849713485644
    VV10 Nonlocal Energy =                  0.0000000000000000
    Total Energy =                       -440.1979636497841284
 Dipole X            :          1.5649658           -2.1585941           -0.5936283
 Dipole Y            :          1.8529110           -2.6382597           -0.7853486
 Dipole Z            :         -3.2720481            4.4175479            1.1454998
 Magnitude           :                                                    1.5104095
*** Psi4 exiting successfully. Buy a developer a beer!
