   * xtb version 6.5.0 (97a52f5) compiled by 'conda@d2599ee0d4f4' on 2022-05-15
          program call               : /home/liuchw/anaconda3/envs/xtbenv/bin/xtb --gfn 2 --chrg 0 --uhf 0 3_24_Index_0-opt-2-3-097_preQMOPTprefit_xyzformat.xyz --opt --input xtb-opt-2-3-097_constr.txt

   ID    Z sym.   atoms
    1    6 C      1, 3-9
    2    7 N      2
    3    1 H      10, 11, 13-19
    4    8 O      12
constraining angle 1 2 3 4 to   96.9919783°, actual value:   96.9919783°
constraining angle 1 2 5 14 to  220.9904303°, actual value: -139.0095697°
constraining angle 12 1 2 3 to  357.9980844°, actual value:   -2.0019156°

          :  Hamiltonian                  GFN2-xTB          :
 * total energy  :   -28.6900357 Eh     change       -0.1284803E-09 Eh
 * total energy  :   -28.6964997 Eh     change       -0.6463993E-02 Eh
 * total energy  :   -28.6973627 Eh     change       -0.8629480E-03 Eh
 * total energy  :   -28.6974606 Eh     change       -0.9792711E-04 Eh
 * total energy  :   -28.6974364 Eh     change        0.2417473E-04 Eh
 * total energy  :   -28.6975053 Eh     change       -0.6887491E-04 Eh
 * total energy  :   -28.6975102 Eh     change       -0.4882631E-05 Eh
 * total energy  :   -28.6975151 Eh     change       -0.4927878E-05 Eh
   *** GEOMETRY OPTIMIZATION CONVERGED AFTER 8 ITERATIONS ***

 final structure:
================
19
 xtb: 6.5.0 (97a52f5)
C            1.98744255021781        0.78014864635005        0.98851738318466
N            1.09147288036747       -0.22279533220198        0.95073078472473
C           -0.12016371112264       -0.06762631874925        0.20823007012320
C           -0.20545566655719       -0.57284417081210       -1.08062864344848
C            1.23257004873313       -1.43891915817233        1.71403287492655
C           -1.20033540592875        0.59320326254028        0.77328283042032
C           -2.37079699224055        0.73756985117478        0.04936818490574
C           -2.46242600086434        0.22516264568107       -1.23334611508804
C           -1.37917167737759       -0.42643323681508       -1.79829699129614
H           -1.11520573811597        0.99916934182645        1.77009847617027
H            0.64878347373920       -1.06955337186994       -1.51620909664768
O            1.88767229173597        1.83291991250472        0.40950073718158
H            2.26832498461157       -1.55950698981769        2.02688941244141
H            0.93821838102312       -2.29295964902735        1.10189322691756
H            0.59319854055907       -1.41858615560085        2.60240125240688
H           -3.21176480231555        1.25429481091590        0.48726021452209
H           -1.44596014794324       -0.81704082867267       -2.80283781980186
H           -3.37671705154711        0.33968566141386       -1.79634016576651
H            2.86399903302556        0.52289905933216        1.61603739412375

          :  Hamiltonian                  GFN2-xTB          :
         :: total energy             -28.697515128559 Eh    ::
         :: gradient norm              0.000827174463 Eh/a0 ::
         :: HOMO-LUMO gap              4.278236365736 eV    ::
         :: SCC energy               -29.148559061612 Eh    ::
         :: -> dispersion             -0.016042930661 Eh    ::
         :: repulsion energy           0.450968055233 Eh    ::

    * Orbital Energies and Occupations

         #    Occupation            Energy/Eh            Energy/eV
      -------------------------------------------------------------
         1        2.0000           -0.6940891             -18.8871
       ...           ...                  ...                  ...
        14        2.0000           -0.5060662             -13.7708
        15        2.0000           -0.5054498             -13.7540
        16        2.0000           -0.5033800             -13.6977
        17        2.0000           -0.4927741             -13.4091
        18        2.0000           -0.4905333             -13.3481
        19        2.0000           -0.4887174             -13.2987
        20        2.0000           -0.4854644             -13.2102
        21        2.0000           -0.4435764             -12.0703
        22        2.0000           -0.4390705             -11.9477
        23        2.0000           -0.4159762             -11.3193
        24        2.0000           -0.4152583             -11.2998
        25        2.0000           -0.3955912             -10.7646
        26        2.0000           -0.3931071             -10.6970 (HOMO)
        27                         -0.2358848              -6.4188 (LUMO)
        28                         -0.2343258              -6.3763
        29                         -0.2066273              -5.6226
        30                         -0.1054569              -2.8696
        31                         -0.0034937              -0.0951
        32                          0.0796448               2.1672
        33                          0.1153523               3.1389
        34                          0.1264320               3.4404
        35                          0.1444801               3.9315
        36                          0.1630704               4.4374
        37                          0.1702295               4.6322
       ...                                ...                  ...
        49                          0.6679770              18.1766
      -------------------------------------------------------------
                  HL-Gap            0.1572223 Eh            4.2782 eV

     #   Z          covCN         q      C6AA      α(0)
     1   6 C        2.712     0.249    22.815     7.819
     2   7 N        2.735    -0.093    23.055     7.131
     3   6 C        2.929     0.075    26.321     8.414
     4   6 C        2.922    -0.034    28.857     8.809
     5   6 C        3.698    -0.045    21.544     6.639
     6   6 C        2.922    -0.032    28.795     8.800
     7   6 C        2.921    -0.025    28.638     8.776
     8   6 C        2.920    -0.028    28.706     8.786
     9   6 C        2.921    -0.026    28.652     8.778
    10   1 H        0.926     0.044     2.401     2.423
    11   1 H        0.926     0.043     2.411     2.428
    12   8 O        0.857    -0.414    21.964     6.283
    13   1 H        0.925     0.059     2.212     2.326
    14   1 H        0.924     0.058     2.227     2.334
    15   1 H        0.924     0.051     2.305     2.374
    16   1 H        0.926     0.042     2.428     2.437
    17   1 H        0.926     0.041     2.435     2.440
    18   1 H        0.926     0.040     2.446     2.446
    19   1 H        0.922    -0.004     3.123     2.764

Wiberg/Mayer (AO) data.
largest (>0.10) Wiberg bond orders for each atom

     #   Z sym  total        # sym  WBO       # sym  WBO       # sym  WBO
 ---------------------------------------------------------------------------
     1   6 C    3.955 --    12 O    1.722     2 N    1.259    19 H    0.917
     2   7 N    3.501 --     1 C    1.259     5 C    0.995     3 C    0.974
                            12 O    0.215
     3   6 C    3.965 --     6 C    1.411     4 C    1.409     2 N    0.974
                             8 C    0.109
     4   6 C    3.992 --     9 C    1.442     3 C    1.409    11 H    0.969
                             7 C    0.113
     5   6 C    3.972 --     2 N    0.995    14 H    0.979    13 H    0.978
                            15 H    0.975
     6   6 C    3.991 --     7 C    1.440     3 C    1.411    10 H    0.969
                             9 C    0.112
     7   6 C    3.991 --     8 C    1.441     6 C    1.440    16 H    0.970
                             4 C    0.113
     8   6 C    3.992 --     7 C    1.441     9 C    1.439    18 H    0.971
                             3 C    0.109
     9   6 C    3.991 --     4 C    1.442     8 C    1.439    17 H    0.970
                             6 C    0.112
    10   1 H    0.998 --     6 C    0.969
    11   1 H    0.998 --     4 C    0.969
    12   8 O    2.028 --     1 C    1.722     2 N    0.215
    13   1 H    0.996 --     5 C    0.978
    14   1 H    0.997 --     5 C    0.979
    15   1 H    0.997 --     5 C    0.975
    16   1 H    0.998 --     7 C    0.970
    17   1 H    0.998 --     9 C    0.970
    18   1 H    0.998 --     8 C    0.971
    19   1 H    0.999 --     1 C    0.917
 ---------------------------------------------------------------------------

molecular dipole:
                 x           y           z       tot (Debye)
 q only:       -0.724      -1.449       0.332
   full:       -0.614      -1.623       0.501       4.590

           -------------------------------------------------
          | TOTAL ENERGY              -28.697515128559 Eh   |
          | GRADIENT NORM               0.000827174463 Eh/α |
          | HOMO-LUMO GAP               4.278236365736 eV   |
           -------------------------------------------------

 * finished run on 2023/11/18 at 08:18:26.355
