                               Psi4 1.6 release

  ==> Input File <==

--------------------------------------------------------------------------
molecule {
0 1
 C    1.987443    0.780149    0.988517
 N    1.091473   -0.222795    0.950731
 C   -0.120164   -0.067626    0.208230
 C   -0.205456   -0.572844   -1.080629
 C    1.232570   -1.438919    1.714033
 C   -1.200335    0.593203    0.773283
 C   -2.370797    0.737570    0.049368
 C   -2.462426    0.225163   -1.233346
 C   -1.379172   -0.426433   -1.798297
 H   -1.115206    0.999169    1.770098
 H    0.648783   -1.069553   -1.516209
 O    1.887672    1.832920    0.409501
 H    2.268325   -1.559507    2.026889
 H    0.938218   -2.292960    1.101893
 H    0.593199   -1.418586    2.602401
 H   -3.211765    1.254295    0.487260
 H   -1.445960   -0.817041   -2.802838
 H   -3.376717    0.339686   -1.796340
 H    2.863999    0.522899    1.616037
}
memory 20GB
set_num_threads(5)
psi4_io.set_default_path("/scratch/liuchw/Psi4-3_24_Index_0-farH_in17")
set freeze_core True
E, wfn = energy('wb97x-d/6-311+G*',return_wfn=True)
oeprop(wfn,"WIBERG_LOWDIN_INDICES")
clean()
--------------------------------------------------------------------------

    Molecular point group: c1

    Geometry (in Angstrom), charge = 0, multiplicity = 1:

       Center              X                  Y                   Z               Mass
    ------------   -----------------  -----------------  -----------------  -----------------
         C            2.065880390245     0.631427949571     0.849080313293    12.000000000000
         N            1.169910390245    -0.371516050429     0.811294313293    14.003074004430
         C           -0.041726609755    -0.216347050429     0.068793313293    12.000000000000
         C           -0.127018609755    -0.721565050429    -1.220065686707    12.000000000000
         C            1.311007390245    -1.587640050429     1.574596313293    12.000000000000
         C           -1.121897609755     0.444481949571     0.633846313293    12.000000000000
         C           -2.292359609755     0.588848949571    -0.090068686707    12.000000000000
         C           -2.383988609755     0.076441949571    -1.372782686707    12.000000000000
         C           -1.300734609755    -0.575154050429    -1.937733686707    12.000000000000
         H           -1.036768609755     0.850447949571     1.630661313293     1.007825032230
         H            0.727220390245    -1.218274050429    -1.655645686707     1.007825032230
         O            1.966109390245     1.684198949571     0.270064313293    15.994914619570
         H            2.346762390245    -1.708228050429     1.887452313293     1.007825032230
         H            1.016655390245    -2.441681050429     0.962456313293     1.007825032230
         H            0.671636390245    -1.567307050429     2.462964313293     1.007825032230
         H           -3.133327609755     1.105573949571     0.347823313293     1.007825032230
         H           -1.367522609755    -0.965762050429    -2.942274686707     1.007825032230
         H           -3.298279609755     0.190964949571    -1.935776686707     1.007825032230
         H            2.942436390245     0.374177949571     1.476600313293     1.007825032230

  Charge       = 0
  Multiplicity = 1
  Basis Set: 6-311+G*
    Blend: 6-311+G*
  Basis Set: (6-311+G* AUX)
    Blend: HEAVY-AUG-CC-PVTZ-JKFIT

    Orbital Energies [Eh]
    ---------------------

    Doubly Occupied:

       1A    -19.212387     2A    -14.472984     3A    -10.382077
       4A    -10.333452     5A    -10.330197     6A    -10.297159
       7A    -10.296792     8A    -10.296138     9A    -10.295801
      10A    -10.294891    11A     -1.149375    12A     -1.062286
      13A     -0.969610    14A     -0.864605    15A     -0.862601
      16A     -0.819333    17A     -0.747678    18A     -0.718693
      19A     -0.672011    20A     -0.614631    21A     -0.609661
      22A     -0.578698    23A     -0.571852    24A     -0.541968
      25A     -0.534642    26A     -0.521012    27A     -0.507732
      28A     -0.497762    29A     -0.478840    30A     -0.468362
      31A     -0.450868    32A     -0.442251    33A     -0.345044
      34A     -0.343424    35A     -0.341715    36A     -0.334103

  @DF-RKS Final Energy:  -440.19810748984861

   => Energetics <=

    Nuclear Repulsion Energy =            499.1348495547201765
    One-Electron Energy =               -1584.9785158318263711
    Two-Electron Energy =                 688.6020109784964234
    DFT Exchange-Correlation Energy =     -42.9462170312468601
    Empirical Dispersion Energy =          -0.0102351599920044
    VV10 Nonlocal Energy =                  0.0000000000000000
    Total Energy =                       -440.1981074898486668
 Dipole X            :          0.5751798           -1.0544046           -0.4792249
 Dipole Y            :          3.5998773           -5.0344962           -1.4346188
 Dipole Z            :         -1.6181977            2.0934926            0.4752949
 Magnitude           :                                                    1.5854630
*** Psi4 exiting successfully. Buy a developer a beer!
