   * xtb version 6.5.0 (97a52f5) compiled by 'conda@d2599ee0d4f4' on 2022-05-15
          program call               : /home/liuchw/anaconda3/envs/xtbenv/bin/xtb --gfn 2 --chrg 0 --uhf 0 3_24_Index_0-opt-2-5-041_preQMOPTprefit_xyzformat.xyz --opt --input xtb-opt-2-5-041_constr.txt

   ID    Z sym.   atoms
    1    6 C      1, 3-9
    2    7 N      2
    3    1 H      10, 11, 13-19
    4    8 O      12
constraining angle 1 2 5 14 to   41.0144599°, actual value:   41.0144599°
constraining angle 1 2 3 4 to   37.1073053°, actual value:   37.1073053°
constraining angle 12 1 2 3 to  358.0031113°, actual value:   -1.9968887°

          :  Hamiltonian                  GFN2-xTB          :
 * total energy  :   -28.6881097 Eh     change       -0.1006587E-08 Eh
 * total energy  :   -28.6966751 Eh     change       -0.8565425E-02 Eh
 * total energy  :   -28.6968021 Eh     change       -0.1269660E-03 Eh
 * total energy  :   -28.6971521 Eh     change       -0.3499597E-03 Eh
 * total energy  :   -28.6979669 Eh     change       -0.8148139E-03 Eh
 * total energy  :   -28.6981218 Eh     change       -0.1549425E-03 Eh
 * total energy  :   -28.6981804 Eh     change       -0.5857666E-04 Eh
 * total energy  :   -28.6982425 Eh     change       -0.6211809E-04 Eh
 * total energy  :   -28.6982785 Eh     change       -0.3603339E-04 Eh
 * total energy  :   -28.6982921 Eh     change       -0.1357911E-04 Eh
 * total energy  :   -28.6982971 Eh     change       -0.4989354E-05 Eh
   *** GEOMETRY OPTIMIZATION CONVERGED AFTER 11 ITERATIONS ***

 final structure:
================
19
 xtb: 6.5.0 (97a52f5)
C            2.27565085590668        0.08887117287802        0.35978133012764
N            1.09325291668956       -0.33115841159029        0.86803860256079
C           -0.13194308399969       -0.11296574345582        0.18961358887117
C           -0.19233682475746       -0.19780421705636       -1.19784999864334
C            1.09930788414206       -1.09029751823480        2.10260027481696
C           -1.27451969879358        0.25296572819502        0.89683793904208
C           -2.46087186899935        0.49290949006294        0.22902542676030
C           -2.52221403145024        0.38803304242760       -1.14995486668372
C           -1.38271760829623        0.04836077370305       -1.85776298371423
H           -1.24173389423230        0.37467810878230        1.96945418352833
H            0.68973625063337       -0.46004933476607       -1.75743183280058
O            2.46134489451443        0.64496849081741       -0.69313924734818
H            0.11401345296036       -1.08579974410962        2.55758344124520
H            1.81757332923986       -0.66786815224316        2.80538479800469
H            1.37784585394323       -2.13033874887655        1.90467716343597
H           -3.33898169243613        0.77482272167956        0.79132194070983
H           -1.41696864686514       -0.02727424175147       -2.93427601451845
H           -3.45015954433108        0.57793894035504       -1.66785888664687
H            3.10740244613169       -0.14120633681683        1.05454112125234

          :  Hamiltonian                  GFN2-xTB          :
         :: total energy             -28.698297115765 Eh    ::
         :: gradient norm              0.000343039745 Eh/a0 ::
         :: HOMO-LUMO gap              3.977853587198 eV    ::
         :: SCC energy               -29.148066498808 Eh    ::
         :: -> dispersion             -0.015949373151 Eh    ::
         :: repulsion energy           0.449708028475 Eh    ::

    * Orbital Energies and Occupations

         #    Occupation            Energy/Eh            Energy/eV
      -------------------------------------------------------------
         1        2.0000           -0.7009925             -19.0750
       ...           ...                  ...                  ...
        14        2.0000           -0.5125325             -13.9467
        15        2.0000           -0.5071260             -13.7996
        16        2.0000           -0.4993860             -13.5890
        17        2.0000           -0.4955992             -13.4859
        18        2.0000           -0.4866000             -13.2411
        19        2.0000           -0.4832878             -13.1509
        20        2.0000           -0.4805835             -13.0773
        21        2.0000           -0.4417132             -12.0196
        22        2.0000           -0.4389146             -11.9435
        23        2.0000           -0.4252108             -11.5706
        24        2.0000           -0.4104538             -11.1690
        25        2.0000           -0.3967003             -10.7948
        26        2.0000           -0.3851813             -10.4813 (HOMO)
        27                         -0.2389979              -6.5035 (LUMO)
        28                         -0.2285108              -6.2181
        29                         -0.2025907              -5.5128
        30                         -0.0971667              -2.6440
        31                         -0.0094310              -0.2566
        32                          0.0825417               2.2461
        33                          0.1038690               2.8264
        34                          0.1349625               3.6725
        35                          0.1478461               4.0231
        36                          0.1571932               4.2774
        37                          0.1760882               4.7916
       ...                                ...                  ...
        49                          0.6706317              18.2488
      -------------------------------------------------------------
                  HL-Gap            0.1461834 Eh            3.9779 eV

     #   Z          covCN         q      C6AA      α(0)
     1   6 C        2.714     0.248    22.841     7.823
     2   7 N        2.734    -0.080    22.806     7.093
     3   6 C        2.918     0.069    26.445     8.433
     4   6 C        2.922    -0.036    28.885     8.814
     5   6 C        3.701    -0.050    21.639     6.652
     6   6 C        2.923    -0.046    29.153     8.854
     7   6 C        2.920    -0.029    28.728     8.789
     8   6 C        2.919    -0.033    28.821     8.804
     9   6 C        2.921    -0.026    28.655     8.778
    10   1 H        0.926     0.033     2.541     2.493
    11   1 H        0.926     0.063     2.168     2.303
    12   8 O        0.857    -0.402    21.717     6.248
    13   1 H        0.925     0.068     2.105     2.269
    14   1 H        0.925     0.056     2.242     2.341
    15   1 H        0.924     0.052     2.290     2.366
    16   1 H        0.926     0.035     2.514     2.479
    17   1 H        0.926     0.040     2.444     2.445
    18   1 H        0.926     0.036     2.504     2.475
    19   1 H        0.922     0.001     3.039     2.726

Wiberg/Mayer (AO) data.
largest (>0.10) Wiberg bond orders for each atom

     #   Z sym  total        # sym  WBO       # sym  WBO       # sym  WBO
 ---------------------------------------------------------------------------
     1   6 C    3.955 --    12 O    1.735     2 N    1.238    19 H    0.919
     2   7 N    3.534 --     1 C    1.238     3 C    1.022     5 C    0.995
                            12 O    0.196
     3   6 C    3.961 --     4 C    1.388     6 C    1.385     2 N    1.022
                             8 C    0.102
     4   6 C    3.989 --     9 C    1.446     3 C    1.388    11 H    0.966
                             7 C    0.109
     5   6 C    3.969 --     2 N    0.995    14 H    0.979    15 H    0.976
                            13 H    0.976
     6   6 C    3.991 --     7 C    1.451     3 C    1.385    10 H    0.964
                             9 C    0.109
     7   6 C    3.992 --     6 C    1.451     8 C    1.433    16 H    0.971
                             4 C    0.109
     8   6 C    3.992 --     9 C    1.438     7 C    1.433    18 H    0.971
                             3 C    0.102
     9   6 C    3.992 --     4 C    1.446     8 C    1.438    17 H    0.970
                             6 C    0.109
    10   1 H    0.999 --     6 C    0.964
    11   1 H    0.996 --     4 C    0.966
    12   8 O    2.042 --     1 C    1.735     2 N    0.196
    13   1 H    0.995 --     5 C    0.976
    14   1 H    0.996 --     5 C    0.979
    15   1 H    0.997 --     5 C    0.976
    16   1 H    0.998 --     7 C    0.971
    17   1 H    0.998 --     9 C    0.970
    18   1 H    0.999 --     8 C    0.971
    19   1 H    0.999 --     1 C    0.919
 ---------------------------------------------------------------------------

molecular dipole:
                 x           y           z       tot (Debye)
 q only:       -0.815      -0.736       0.991
   full:       -0.758      -0.835       1.245       4.271

           -------------------------------------------------
          | TOTAL ENERGY              -28.698297115765 Eh   |
          | GRADIENT NORM               0.000343039745 Eh/α |
          | HOMO-LUMO GAP               3.977853587198 eV   |
           -------------------------------------------------

 * finished run on 2023/11/18 at 08:23:08.408
