   * xtb version 6.5.0 (97a52f5) compiled by 'conda@d2599ee0d4f4' on 2022-05-15
          program call               : /home/liuchw/anaconda3/envs/xtbenv/bin/xtb --gfn 2 --chrg 0 --uhf 0 3_24_Index_0-opt-2-5-251_preQMOPTprefit_xyzformat.xyz --opt --input xtb-opt-2-5-251_constr.txt

   ID    Z sym.   atoms
    1    6 C      1, 3-9
    2    7 N      2
    3    1 H      10, 11, 13-19
    4    8 O      12
constraining angle 1 2 5 14 to  250.9930195°, actual value: -109.0069805°
constraining angle 1 2 3 4 to   37.0902999°, actual value:   37.0902999°
constraining angle 12 1 2 3 to  358.0030141°, actual value:   -1.9969859°

          :  Hamiltonian                  GFN2-xTB          :
 * total energy  :   -28.6885339 Eh     change       -0.1287930E-08 Eh
 * total energy  :   -28.6972803 Eh     change       -0.8746333E-02 Eh
 * total energy  :   -28.6977250 Eh     change       -0.4447439E-03 Eh
 * total energy  :   -28.6977321 Eh     change       -0.7102831E-05 Eh
 * total energy  :   -28.6986592 Eh     change       -0.9270584E-03 Eh
 * total energy  :   -28.6987730 Eh     change       -0.1137964E-03 Eh
 * total energy  :   -28.6988213 Eh     change       -0.4835023E-04 Eh
 * total energy  :   -28.6988608 Eh     change       -0.3944965E-04 Eh
 * total energy  :   -28.6988824 Eh     change       -0.2166617E-04 Eh
 * total energy  :   -28.6988919 Eh     change       -0.9485164E-05 Eh
 * total energy  :   -28.6988967 Eh     change       -0.4735384E-05 Eh
   *** GEOMETRY OPTIMIZATION CONVERGED AFTER 11 ITERATIONS ***

 final structure:
================
19
 xtb: 6.5.0 (97a52f5)
C            2.24890707187742        0.29337958237003        0.49292497506539
N            1.08286755526959       -0.23784065495889        0.92857063135254
C           -0.12344912478871       -0.08801469406948        0.19636198480944
C           -0.10841461086527       -0.12168038057360       -1.19497617755201
C            1.05995106062548       -1.04548340491897        2.12793748444392
C           -1.33249280457628        0.11665138005968        0.85511411756628
C           -2.50163830848469        0.27473947371219        0.13378787401061
C           -2.48346130999100        0.23652361253610       -1.24947136984447
C           -1.28210066391267        0.04092597927118       -1.90797176644926
H           -1.37256608789316        0.17133459320371        1.93204516118337
H            0.82129365475193       -0.27267403278288       -1.71708448024562
O            2.43553220904471        0.90289065978512       -0.52953090939984
H            2.02248370214569       -0.96861696714392        2.63170302917410
H            0.88734067704160       -2.09448176803526        1.87259551527211
H            0.28612946283033       -0.71722693531136        2.81963892306710
H           -3.43141612901536        0.43477089684436        0.65976381335784
H           -1.25478840277510        0.01058467673597       -2.98691800244042
H           -3.39854822002317        0.36117444353802       -1.80844209922944
H            3.06805227873865        0.10183053973802        1.21453529585832

          :  Hamiltonian                  GFN2-xTB          :
         :: total energy             -28.698896651007 Eh    ::
         :: gradient norm              0.000728007758 Eh/a0 ::
         :: HOMO-LUMO gap              4.008920880474 eV    ::
         :: SCC energy               -29.148968526207 Eh    ::
         :: -> dispersion             -0.015965964525 Eh    ::
         :: repulsion energy           0.450011982842 Eh    ::

    * Orbital Energies and Occupations

         #    Occupation            Energy/Eh            Energy/eV
      -------------------------------------------------------------
         1        2.0000           -0.7012224             -19.0812
       ...           ...                  ...                  ...
        14        2.0000           -0.5136984             -13.9784
        15        2.0000           -0.5065829             -13.7848
        16        2.0000           -0.4991009             -13.5812
        17        2.0000           -0.4947030             -13.4616
        18        2.0000           -0.4859287             -13.2228
        19        2.0000           -0.4836429             -13.1606
        20        2.0000           -0.4807760             -13.0826
        21        2.0000           -0.4417038             -12.0194
        22        2.0000           -0.4393025             -11.9540
        23        2.0000           -0.4243989             -11.5485
        24        2.0000           -0.4104821             -11.1698
        25        2.0000           -0.3969360             -10.8012
        26        2.0000           -0.3859751             -10.5029 (HOMO)
        27                         -0.2386500              -6.4940 (LUMO)
        28                         -0.2282969              -6.2123
        29                         -0.2018737              -5.4933
        30                         -0.0966506              -2.6300
        31                         -0.0074531              -0.2028
        32                          0.0719309               1.9573
        33                          0.0998398               2.7168
        34                          0.1332366               3.6256
        35                          0.1528691               4.1598
        36                          0.1596764               4.3450
        37                          0.1682060               4.5771
       ...                                ...                  ...
        49                          0.6703488              18.2411
      -------------------------------------------------------------
                  HL-Gap            0.1473251 Eh            4.0089 eV

     #   Z          covCN         q      C6AA      α(0)
     1   6 C        2.712     0.248    22.838     7.823
     2   7 N        2.734    -0.079    22.779     7.089
     3   6 C        2.920     0.069    26.446     8.433
     4   6 C        2.923    -0.036    28.897     8.815
     5   6 C        3.700    -0.049    21.609     6.648
     6   6 C        2.922    -0.046    29.135     8.852
     7   6 C        2.921    -0.029    28.729     8.790
     8   6 C        2.919    -0.033    28.820     8.803
     9   6 C        2.921    -0.026    28.660     8.779
    10   1 H        0.926     0.033     2.541     2.493
    11   1 H        0.926     0.063     2.159     2.298
    12   8 O        0.857    -0.402    21.726     6.249
    13   1 H        0.925     0.058     2.222     2.331
    14   1 H        0.924     0.055     2.255     2.348
    15   1 H        0.925     0.062     2.179     2.308
    16   1 H        0.926     0.035     2.513     2.479
    17   1 H        0.926     0.040     2.445     2.445
    18   1 H        0.926     0.036     2.505     2.475
    19   1 H        0.922    -0.000     3.065     2.738

Wiberg/Mayer (AO) data.
largest (>0.10) Wiberg bond orders for each atom

     #   Z sym  total        # sym  WBO       # sym  WBO       # sym  WBO
 ---------------------------------------------------------------------------
     1   6 C    3.954 --    12 O    1.733     2 N    1.239    19 H    0.916
     2   7 N    3.536 --     1 C    1.239     3 C    1.020     5 C    0.998
                            12 O    0.196
     3   6 C    3.961 --     6 C    1.388     4 C    1.387     2 N    1.020
                             8 C    0.102
     4   6 C    3.989 --     9 C    1.447     3 C    1.387    11 H    0.965
                             7 C    0.109
     5   6 C    3.970 --     2 N    0.998    13 H    0.977    14 H    0.976
                            15 H    0.973
     6   6 C    3.991 --     7 C    1.449     3 C    1.388    10 H    0.965
                             9 C    0.109
     7   6 C    3.992 --     6 C    1.449     8 C    1.435    16 H    0.971
                             4 C    0.109
     8   6 C    3.992 --     9 C    1.437     7 C    1.435    18 H    0.971
                             3 C    0.102
     9   6 C    3.992 --     4 C    1.447     8 C    1.437    17 H    0.970
                             6 C    0.109
    10   1 H    0.999 --     6 C    0.965
    11   1 H    0.996 --     4 C    0.965
    12   8 O    2.043 --     1 C    1.733     2 N    0.196
    13   1 H    0.996 --     5 C    0.977
    14   1 H    0.997 --     5 C    0.976
    15   1 H    0.996 --     5 C    0.973
    16   1 H    0.998 --     7 C    0.971
    17   1 H    0.998 --     9 C    0.970
    18   1 H    0.999 --     8 C    0.971
    19   1 H    0.999 --     1 C    0.916
 ---------------------------------------------------------------------------

molecular dipole:
                 x           y           z       tot (Debye)
 q only:       -0.791      -0.839       0.920
   full:       -0.742      -0.943       1.175       4.269

           -------------------------------------------------
          | TOTAL ENERGY              -28.698896651007 Eh   |
          | GRADIENT NORM               0.000728007758 Eh/α |
          | HOMO-LUMO GAP               4.008920880474 eV   |
           -------------------------------------------------

 * finished run on 2023/11/18 at 08:21:45.343
