   * xtb version 6.5.0 (97a52f5) compiled by 'conda@d2599ee0d4f4' on 2022-05-15
          program call               : /home/liuchw/anaconda3/envs/xtbenv/bin/xtb --gfn 2 --chrg 0 --uhf 0 3_24_Index_0-opt-2-3-187_preQMOPTprefit_xyzformat.xyz --opt --input xtb-opt-2-3-187_constr.txt

   ID    Z sym.   atoms
    1    6 C      1, 3-9
    2    7 N      2
    3    1 H      10, 11, 13-19
    4    8 O      12
constraining angle 1 2 3 4 to  187.0926004°, actual value: -172.9073996°
constraining angle 1 2 5 14 to  221.0243447°, actual value: -138.9756553°
constraining angle 12 1 2 3 to  358.0049547°, actual value:   -1.9950453°

          :  Hamiltonian                  GFN2-xTB          :
 * total energy  :   -28.6866994 Eh     change       -0.3066667E-09 Eh
 * total energy  :   -28.6971743 Eh     change       -0.1047493E-01 Eh
 * total energy  :   -28.6986846 Eh     change       -0.1510270E-02 Eh
 * total energy  :   -28.6985919 Eh     change        0.9262126E-04 Eh
 * total energy  :   -28.6988745 Eh     change       -0.2825182E-03 Eh
 * total energy  :   -28.6989038 Eh     change       -0.2930047E-04 Eh
 * total energy  :   -28.6989415 Eh     change       -0.3776403E-04 Eh
 * total energy  :   -28.6989663 Eh     change       -0.2478651E-04 Eh
 * total energy  :   -28.6989740 Eh     change       -0.7697087E-05 Eh
 * total energy  :   -28.6989805 Eh     change       -0.6524736E-05 Eh
 * total energy  :   -28.6989828 Eh     change       -0.2248442E-05 Eh
   *** GEOMETRY OPTIMIZATION CONVERGED AFTER 11 ITERATIONS ***

 final structure:
================
19
 xtb: 6.5.0 (97a52f5)
C            1.43541263380739        0.68846096813407        1.98700608265365
N            0.99458792468371       -0.20387998020261        1.06403257020467
C           -0.18945478311249       -0.05049771828104        0.30608816261439
C           -0.64586591332836       -1.08484518064318       -0.51281870222334
C            1.76821181296449       -1.41743754543393        0.89229555591672
C           -0.90497715974911        1.14771081938464        0.31136484593656
C           -2.03616792485915        1.29688867197449       -0.46856237476549
C           -2.48147124534783        0.26699008788431       -1.27821686583957
C           -1.78002269502832       -0.92419149471364       -1.28883792849353
H           -0.57945281646259        1.96560900129957        0.92932396451565
H           -0.15231904594573       -2.04223517165831       -0.53933827412992
O            0.95312413602323        1.74644022359670        2.30447654393162
H            2.76897824411416       -1.27352357687505        1.29426271253053
H            1.84843458444830       -1.66897771976895       -0.16445950807439
H            1.29946152717506       -2.25690746362674        1.41451219528985
H           -2.57025784758882        2.23501821220680       -0.44290758732735
H           -2.11238765538148       -1.74420946908882       -1.90864235076384
H           -3.36277580158815        0.38893145190050       -1.88935761557100
H            2.37062605517574        0.32944289391112        2.46036555359487

          :  Hamiltonian                  GFN2-xTB          :
         :: total energy             -28.698982786620 Eh    ::
         :: gradient norm              0.000688725919 Eh/a0 ::
         :: HOMO-LUMO gap              3.851406192415 eV    ::
         :: SCC energy               -29.147679428586 Eh    ::
         :: -> dispersion             -0.015890815639 Eh    ::
         :: repulsion energy           0.448646352074 Eh    ::

    * Orbital Energies and Occupations

         #    Occupation            Energy/Eh            Energy/eV
      -------------------------------------------------------------
         1        2.0000           -0.7055453             -19.1989
       ...           ...                  ...                  ...
        14        2.0000           -0.5141032             -13.9895
        15        2.0000           -0.5131332             -13.9631
        16        2.0000           -0.4996716             -13.5968
        17        2.0000           -0.4912603             -13.3679
        18        2.0000           -0.4855106             -13.2114
        19        2.0000           -0.4822320             -13.1222
        20        2.0000           -0.4764285             -12.9643
        21        2.0000           -0.4424089             -12.0386
        22        2.0000           -0.4404630             -11.9856
        23        2.0000           -0.4281130             -11.6495
        24        2.0000           -0.4069973             -11.0750
        25        2.0000           -0.3944018             -10.7322
        26        2.0000           -0.3840883             -10.4516 (HOMO)
        27                         -0.2425518              -6.6002 (LUMO)
        28                         -0.2251013              -6.1253
        29                         -0.1962725              -5.3408
        30                         -0.0898200              -2.4441
        31                         -0.0116811              -0.3179
        32                          0.0635156               1.7283
        33                          0.1068980               2.9088
        34                          0.1361576               3.7050
        35                          0.1451778               3.9505
        36                          0.1608792               4.3777
        37                          0.1793054               4.8791
       ...                                ...                  ...
        49                          0.6699760              18.2310
      -------------------------------------------------------------
                  HL-Gap            0.1415366 Eh            3.8514 eV

     #   Z          covCN         q      C6AA      α(0)
     1   6 C        2.713     0.247    22.850     7.825
     2   7 N        2.733    -0.070    22.599     7.060
     3   6 C        2.912     0.067    26.498     8.441
     4   6 C        2.923    -0.054    29.339     8.883
     5   6 C        3.706    -0.051    21.646     6.651
     6   6 C        2.923    -0.048    29.200     8.862
     7   6 C        2.921    -0.028    28.688     8.783
     8   6 C        2.917    -0.035    28.880     8.812
     9   6 C        2.921    -0.030    28.755     8.794
    10   1 H        0.926     0.079     1.989     2.205
    11   1 H        0.926     0.034     2.536     2.490
    12   8 O        0.856    -0.397    21.624     6.235
    13   1 H        0.925     0.059     2.209     2.324
    14   1 H        0.925     0.066     2.128     2.281
    15   1 H        0.924     0.056     2.244     2.343
    16   1 H        0.926     0.038     2.476     2.461
    17   1 H        0.926     0.032     2.560     2.502
    18   1 H        0.926     0.033     2.547     2.496
    19   1 H        0.922     0.003     3.012     2.714

Wiberg/Mayer (AO) data.
largest (>0.10) Wiberg bond orders for each atom

     #   Z sym  total        # sym  WBO       # sym  WBO       # sym  WBO
 ---------------------------------------------------------------------------
     1   6 C    3.954 --    12 O    1.734     2 N    1.232    19 H    0.917
     2   7 N    3.558 --     1 C    1.232     3 C    1.048     5 C    1.000
                            12 O    0.184
     3   6 C    3.958 --     4 C    1.375     6 C    1.372     2 N    1.048
     4   6 C    3.990 --     9 C    1.448     3 C    1.375    11 H    0.965
                             7 C    0.106
     5   6 C    3.969 --     2 N    1.000    13 H    0.976    15 H    0.975
                            14 H    0.974
     6   6 C    3.986 --     7 C    1.455     3 C    1.372    10 H    0.957
                             9 C    0.109
     7   6 C    3.992 --     6 C    1.455     8 C    1.431    16 H    0.971
                             4 C    0.106
     8   6 C    3.993 --     9 C    1.437     7 C    1.431    18 H    0.971
     9   6 C    3.992 --     4 C    1.448     8 C    1.437    17 H    0.971
                             6 C    0.109
    10   1 H    0.994 --     6 C    0.957
    11   1 H    0.999 --     4 C    0.965
    12   8 O    2.052 --     1 C    1.734     2 N    0.184
    13   1 H    0.996 --     5 C    0.976
    14   1 H    0.996 --     5 C    0.974
    15   1 H    0.997 --     5 C    0.975
    16   1 H    0.998 --     7 C    0.971
    17   1 H    0.998 --     9 C    0.971
    18   1 H    0.998 --     8 C    0.971
    19   1 H    0.999 --     1 C    0.917
 ---------------------------------------------------------------------------

molecular dipole:
                 x           y           z       tot (Debye)
 q only:        0.225      -1.203      -0.654
   full:        0.376      -1.448      -0.659       4.154

           -------------------------------------------------
          | TOTAL ENERGY              -28.698982786620 Eh   |
          | GRADIENT NORM               0.000688725919 Eh/α |
          | HOMO-LUMO GAP               3.851406192415 eV   |
           -------------------------------------------------

 * finished run on 2023/11/18 at 08:19:16.044
