                               Psi4 1.6 release

  ==> Input File <==

--------------------------------------------------------------------------
molecule {
0 1
 C    2.150956    0.552798    0.683500
 N    1.103177   -0.265330    0.911290
 C   -0.108036   -0.080830    0.185016
 C   -0.124657   -0.319280   -1.182250
 C    1.096134   -1.232404    1.983060
 C   -1.272302    0.301422    0.837776
 C   -2.444967    0.452293    0.119745
 C   -2.461455    0.221520   -1.245444
 C   -1.299581   -0.159538   -1.894779
 H   -1.258958    0.494199    1.900205
 H    0.787592   -0.608632   -1.680511
 O    2.188140    1.443682   -0.127445
 H    2.118776   -1.424615    2.303373
 H    0.651669   -2.163813    1.628640
 H    0.521375   -0.878088    2.843060
 H   -3.347708    0.756402    0.628639
 H   -1.308281   -0.339222   -2.959400
 H   -3.378527    0.341895   -1.802405
 H    3.010337    0.306328    1.338516
}
memory 20GB
set_num_threads(5)
psi4_io.set_default_path("/scratch/liuchw/Psi4-3_24_Index_0-farH_in17")
set freeze_core True
E, wfn = energy('wb97x-d/6-311+G*',return_wfn=True)
oeprop(wfn,"WIBERG_LOWDIN_INDICES")
clean()
--------------------------------------------------------------------------

    Molecular point group: c1

    Geometry (in Angstrom), charge = 0, multiplicity = 1:

       Center              X                  Y                   Z               Mass
    ------------   -----------------  -----------------  -----------------  -----------------
         C            2.190498061817     0.459031803489     0.618385883295    12.000000000000
         N            1.142719061817    -0.359096196511     0.846175883295    14.003074004430
         C           -0.068493938183    -0.174596196511     0.119901883295    12.000000000000
         C           -0.085114938183    -0.413046196511    -1.247364116705    12.000000000000
         C            1.135676061817    -1.326170196511     1.917945883295    12.000000000000
         C           -1.232759938183     0.207655803489     0.772661883295    12.000000000000
         C           -2.405424938183     0.358526803489     0.054630883295    12.000000000000
         C           -2.421912938183     0.127753803489    -1.310558116705    12.000000000000
         C           -1.260038938183    -0.253304196511    -1.959893116705    12.000000000000
         H           -1.219415938183     0.400432803489     1.835090883295     1.007825032230
         H            0.827134061817    -0.702398196511    -1.745625116705     1.007825032230
         O            2.227682061817     1.349915803489    -0.192559116705    15.994914619570
         H            2.158318061817    -1.518381196511     2.238258883295     1.007825032230
         H            0.691211061817    -2.257579196511     1.563525883295     1.007825032230
         H            0.560917061817    -0.971854196511     2.777945883295     1.007825032230
         H           -3.308165938183     0.662635803489     0.563524883295     1.007825032230
         H           -1.268738938183    -0.432988196511    -3.024514116705     1.007825032230
         H           -3.338984938183     0.248128803489    -1.867519116705     1.007825032230
         H            3.049879061817     0.212561803489     1.273401883295     1.007825032230

  Charge       = 0
  Multiplicity = 1
  Basis Set: 6-311+G*
    Blend: 6-311+G*
  Basis Set: (6-311+G* AUX)
    Blend: HEAVY-AUG-CC-PVTZ-JKFIT

    Orbital Energies [Eh]
    ---------------------

    Doubly Occupied:

       1A    -19.215310     2A    -14.475905     3A    -10.384302
       4A    -10.334071     5A    -10.331494     6A    -10.297353
       7A    -10.295501     8A    -10.293981     9A    -10.293282
      10A    -10.292746    11A     -1.152098    12A     -1.064747
      13A     -0.968434    14A     -0.864667    15A     -0.861655
      16A     -0.820448    17A     -0.748574    18A     -0.716646
      19A     -0.671907    20A     -0.615463    21A     -0.610087
      22A     -0.577852    23A     -0.572609    24A     -0.542497
      25A     -0.535732    26A     -0.518982    27A     -0.507816
      28A     -0.499364    29A     -0.482480    30A     -0.467186
      31A     -0.450625    32A     -0.441264    33A     -0.360039
      34A     -0.349359    35A     -0.338018    36A     -0.319973

  @DF-RKS Final Energy:  -440.19868836849537

   => Energetics <=

    Nuclear Repulsion Energy =            499.5776647720348933
    One-Electron Energy =               -1585.8404714039663759
    Two-Electron Energy =                 689.0222951649507195
    DFT Exchange-Correlation Energy =     -42.9478984185147468
    Empirical Dispersion Energy =          -0.0102784829998920
    VV10 Nonlocal Energy =                  0.0000000000000000
    Total Energy =                       -440.1986883684953114
 Dipole X            :          1.1360787           -1.7249147           -0.5888360
 Dipole Y            :          2.8971085           -4.0793143           -1.1822058
 Dipole Z            :         -2.5615158            3.3847160            0.8232003
 Magnitude           :                                                    1.5562766
*** Psi4 exiting successfully. Buy a developer a beer!
