                               Psi4 1.6 release

  ==> Input File <==

--------------------------------------------------------------------------
molecule {
0 1
 C    2.275651    0.088871    0.359781
 N    1.093253   -0.331158    0.868039
 C   -0.131943   -0.112966    0.189614
 C   -0.192337   -0.197804   -1.197850
 C    1.099308   -1.090298    2.102600
 C   -1.274520    0.252966    0.896838
 C   -2.460872    0.492909    0.229025
 C   -2.522214    0.388033   -1.149955
 C   -1.382718    0.048361   -1.857763
 H   -1.241734    0.374678    1.969454
 H    0.689736   -0.460049   -1.757432
 O    2.461345    0.644968   -0.693139
 H    0.114013   -1.085800    2.557583
 H    1.817573   -0.667868    2.805385
 H    1.377846   -2.130339    1.904677
 H   -3.338982    0.774823    0.791322
 H   -1.416969   -0.027274   -2.934276
 H   -3.450160    0.577939   -1.667859
 H    3.107402   -0.141206    1.054541
}
memory 20GB
set_num_threads(5)
psi4_io.set_default_path("/scratch/liuchw/Psi4-3_24_Index_0-farH_in17")
set freeze_core True
E, wfn = energy('wb97x-d/6-311+G*',return_wfn=True)
oeprop(wfn,"WIBERG_LOWDIN_INDICES")
clean()
--------------------------------------------------------------------------

    Molecular point group: c1

    Geometry (in Angstrom), charge = 0, multiplicity = 1:

       Center              X                  Y                   Z               Mass
    ------------   -----------------  -----------------  -----------------  -----------------
         C            2.296066059921     0.079150350981     0.354625457493    12.000000000000
         N            1.113668059921    -0.340878649019     0.862883457493    14.003074004430
         C           -0.111527940079    -0.122686649019     0.184458457493    12.000000000000
         C           -0.171921940079    -0.207524649019    -1.203005542507    12.000000000000
         C            1.119723059921    -1.100018649019     2.097444457493    12.000000000000
         C           -1.254104940079     0.243245350981     0.891682457493    12.000000000000
         C           -2.440456940079     0.483188350981     0.223869457493    12.000000000000
         C           -2.501798940079     0.378312350981    -1.155110542507    12.000000000000
         C           -1.362302940079     0.038640350981    -1.862918542507    12.000000000000
         H           -1.221318940079     0.364957350981     1.964298457493     1.007825032230
         H            0.710151059921    -0.469769649019    -1.762587542507     1.007825032230
         O            2.481760059921     0.635247350981    -0.698294542507    15.994914619570
         H            0.134428059921    -1.095520649019     2.552427457493     1.007825032230
         H            1.837988059921    -0.677588649019     2.800229457493     1.007825032230
         H            1.398261059921    -2.140059649019     1.899521457493     1.007825032230
         H           -3.318566940079     0.765102350981     0.786166457493     1.007825032230
         H           -1.396553940079    -0.036994649019    -2.939431542507     1.007825032230
         H           -3.429744940079     0.568218350981    -1.673014542507     1.007825032230
         H            3.127817059921    -0.150926649019     1.049385457493     1.007825032230

  Charge       = 0
  Multiplicity = 1
  Basis Set: 6-311+G*
    Blend: 6-311+G*
  Basis Set: (6-311+G* AUX)
    Blend: HEAVY-AUG-CC-PVTZ-JKFIT

    Orbital Energies [Eh]
    ---------------------

    Doubly Occupied:

       1A    -19.221381     2A    -14.482014     3A    -10.388521
       4A    -10.337284     5A    -10.332979     6A    -10.295816
       7A    -10.293395     8A    -10.290220     9A    -10.288532
      10A    -10.287616    11A     -1.156882    12A     -1.069140
      13A     -0.966568    14A     -0.865569    15A     -0.859751
      16A     -0.821033    17A     -0.751102    18A     -0.712813
      19A     -0.672370    20A     -0.616429    21A     -0.608479
      22A     -0.575927    23A     -0.574676    24A     -0.545897
      25A     -0.537017    26A     -0.516453    27A     -0.508599
      28A     -0.501148    29A     -0.487227    30A     -0.466440
      31A     -0.450339    32A     -0.438480    33A     -0.377301
      34A     -0.352667    35A     -0.334914    36A     -0.307284

  @DF-RKS Final Energy:  -440.19640188487938

   => Energetics <=

    Nuclear Repulsion Energy =            499.3530193073102623
    One-Electron Energy =               -1585.3452802562642319
    Two-Electron Energy =                 688.7577640382683057
    DFT Exchange-Correlation Energy =     -42.9519511494697142
    Empirical Dispersion Energy =          -0.0099538247240522
    VV10 Nonlocal Energy =                  0.0000000000000000
    Total Energy =                       -440.1964018848794922
 Dipole X            :          1.4021940           -2.0139372           -0.6117432
 Dipole Y            :          1.9509425           -2.6889154           -0.7379729
 Dipole Z            :         -3.2118966            4.3786786            1.1667820
 Magnitude           :                                                    1.5100377
*** Psi4 exiting successfully. Buy a developer a beer!
