   * xtb version 6.5.0 (97a52f5) compiled by 'conda@d2599ee0d4f4' on 2022-05-15
          program call               : /home/liuchw/anaconda3/envs/xtbenv/bin/xtb --gfn 2 --chrg 0 --uhf 0 3_24_Index_0-opt-2-3-337_preQMOPTprefit_xyzformat.xyz --opt --input xtb-opt-2-3-337_constr.txt

   ID    Z sym.   atoms
    1    6 C      1, 3-9
    2    7 N      2
    3    1 H      10, 11, 13-19
    4    8 O      12
constraining angle 1 2 3 4 to  336.8898894°, actual value:  -23.1101106°
constraining angle 1 2 5 14 to  221.0139781°, actual value: -138.9860219°
constraining angle 12 1 2 3 to  357.9888387°, actual value:   -2.0111613°

          :  Hamiltonian                  GFN2-xTB          :
 * total energy  :   -28.6868566 Eh     change       -0.3802541E-09 Eh
 * total energy  :   -28.6963311 Eh     change       -0.9474523E-02 Eh
 * total energy  :   -28.6974450 Eh     change       -0.1113955E-02 Eh
 * total energy  :   -28.6972578 Eh     change        0.1871895E-03 Eh
 * total energy  :   -28.6976715 Eh     change       -0.4136827E-03 Eh
 * total energy  :   -28.6977635 Eh     change       -0.9199814E-04 Eh
 * total energy  :   -28.6978136 Eh     change       -0.5006805E-04 Eh
 * total energy  :   -28.6978365 Eh     change       -0.2289176E-04 Eh
 * total energy  :   -28.6978527 Eh     change       -0.1624024E-04 Eh
 * total energy  :   -28.6978671 Eh     change       -0.1435338E-04 Eh
 * total energy  :   -28.6978717 Eh     change       -0.4671130E-05 Eh
   *** GEOMETRY OPTIMIZATION CONVERGED AFTER 11 ITERATIONS ***

 final structure:
================
19
 xtb: 6.5.0 (97a52f5)
C            2.29013174186115       -0.50993912538936        0.29093842080095
N            1.07813414565763       -0.40605158455736        0.88975294870469
C           -0.12089380989595       -0.17211713403078        0.16898281503391
C           -0.09315158288439        0.42697651289679       -1.08925956949219
C            1.03514606950685       -0.34850927988921        2.33704335722744
C           -1.35304615276335       -0.56415577562578        0.68999440735501
C           -2.51930001307336       -0.34909210342610       -0.02135295132778
C           -2.48481846378997        0.25561454977778       -1.26489911848866
C           -1.26458983885039        0.63862697836933       -1.79251930227170
H           -1.42522624643747       -1.05497519999176        1.64741021614263
H            0.84485811914093        0.73162542812751       -1.51955960204353
O            2.54483051801172       -0.46110935437685       -0.88590897689153
H            1.97087603251065       -0.72270911694970        2.74709476180996
H            0.21833241978760       -0.94491437204138        2.73596314621217
H            0.89254186160994        0.68457255069520        2.66906203860677
H           -3.46151681785294       -0.66315735886440        0.40346773746966
H           -1.21804640453799        1.11040197801855       -2.76262765954951
H           -3.39783390773439        0.42299392801099       -1.81583657871889
H            3.08725532973380       -0.67529653075338        1.04283991942062

          :  Hamiltonian                  GFN2-xTB          :
         :: total energy             -28.697871745123 Eh    ::
         :: gradient norm              0.000216352347 Eh/a0 ::
         :: HOMO-LUMO gap              3.912113206782 eV    ::
         :: SCC energy               -29.147177177574 Eh    ::
         :: -> dispersion             -0.015916741246 Eh    ::
         :: repulsion energy           0.449250038891 Eh    ::

    * Orbital Energies and Occupations

         #    Occupation            Energy/Eh            Energy/eV
      -------------------------------------------------------------
         1        2.0000           -0.7031740             -19.1343
       ...           ...                  ...                  ...
        14        2.0000           -0.5151094             -14.0168
        15        2.0000           -0.5081757             -13.8282
        16        2.0000           -0.4991631             -13.5829
        17        2.0000           -0.4943317             -13.4515
        18        2.0000           -0.4849650             -13.1966
        19        2.0000           -0.4834190             -13.1545
        20        2.0000           -0.4787885             -13.0285
        21        2.0000           -0.4423498             -12.0370
        22        2.0000           -0.4400360             -11.9740
        23        2.0000           -0.4262911             -11.6000
        24        2.0000           -0.4090556             -11.1310
        25        2.0000           -0.3961816             -10.7806
        26        2.0000           -0.3844398             -10.4611 (HOMO)
        27                         -0.2406723              -6.5490 (LUMO)
        28                         -0.2270207              -6.1775
        29                         -0.2000276              -5.4430
        30                         -0.0943081              -2.5663
        31                         -0.0102349              -0.2785
        32                          0.0690045               1.8777
        33                          0.0960505               2.6137
        34                          0.1349630               3.6725
        35                          0.1513387               4.1181
        36                          0.1573984               4.2830
        37                          0.1697157               4.6182
       ...                                ...                  ...
        49                          0.6704450              18.2437
      -------------------------------------------------------------
                  HL-Gap            0.1437675 Eh            3.9121 eV

     #   Z          covCN         q      C6AA      α(0)
     1   6 C        2.713     0.248    22.843     7.823
     2   7 N        2.733    -0.076    22.715     7.079
     3   6 C        2.914     0.068    26.468     8.436
     4   6 C        2.923    -0.042    29.033     8.836
     5   6 C        3.703    -0.050    21.628     6.649
     6   6 C        2.923    -0.048    29.198     8.861
     7   6 C        2.921    -0.030    28.741     8.792
     8   6 C        2.918    -0.034    28.846     8.807
     9   6 C        2.921    -0.027    28.675     8.781
    10   1 H        0.926     0.032     2.553     2.499
    11   1 H        0.926     0.071     2.072     2.251
    12   8 O        0.857    -0.400    21.677     6.242
    13   1 H        0.925     0.059     2.211     2.326
    14   1 H        0.925     0.064     2.148     2.292
    15   1 H        0.924     0.054     2.269     2.356
    16   1 H        0.926     0.034     2.531     2.488
    17   1 H        0.926     0.039     2.457     2.451
    18   1 H        0.926     0.035     2.522     2.483
    19   1 H        0.922     0.001     3.041     2.727

Wiberg/Mayer (AO) data.
largest (>0.10) Wiberg bond orders for each atom

     #   Z sym  total        # sym  WBO       # sym  WBO       # sym  WBO
 ---------------------------------------------------------------------------
     1   6 C    3.954 --    12 O    1.734     2 N    1.236    19 H    0.917
     2   7 N    3.543 --     1 C    1.236     3 C    1.031     5 C    0.998
                            12 O    0.190
     3   6 C    3.959 --     6 C    1.382     4 C    1.381     2 N    1.031
                             8 C    0.101
     4   6 C    3.988 --     9 C    1.450     3 C    1.381    11 H    0.961
                             7 C    0.109
     5   6 C    3.969 --     2 N    0.998    13 H    0.977    15 H    0.976
                            14 H    0.971
     6   6 C    3.991 --     7 C    1.450     3 C    1.382    10 H    0.962
                             9 C    0.108
     7   6 C    3.992 --     6 C    1.450     8 C    1.434    16 H    0.971
                             4 C    0.109
     8   6 C    3.993 --     9 C    1.435     7 C    1.434    18 H    0.971
                             3 C    0.101
     9   6 C    3.992 --     4 C    1.450     8 C    1.435    17 H    0.970
                             6 C    0.108
    10   1 H    0.999 --     6 C    0.962
    11   1 H    0.995 --     4 C    0.961
    12   8 O    2.047 --     1 C    1.734     2 N    0.190
    13   1 H    0.996 --     5 C    0.977
    14   1 H    0.996 --     5 C    0.971
    15   1 H    0.997 --     5 C    0.976
    16   1 H    0.998 --     7 C    0.971
    17   1 H    0.998 --     9 C    0.970
    18   1 H    0.998 --     8 C    0.971
    19   1 H    0.999 --     1 C    0.917
 ---------------------------------------------------------------------------

molecular dipole:
                 x           y           z       tot (Debye)
 q only:       -0.788       0.142       1.187
   full:       -0.764       0.116       1.464       4.208

           -------------------------------------------------
          | TOTAL ENERGY              -28.697871745123 Eh   |
          | GRADIENT NORM               0.000216352347 Eh/α |
          | HOMO-LUMO GAP               3.912113206782 eV   |
           -------------------------------------------------

 * finished run on 2023/11/18 at 08:20:08.280
