   * xtb version 6.5.0 (97a52f5) compiled by 'conda@d2599ee0d4f4' on 2022-05-15
          program call               : /home/liuchw/anaconda3/envs/xtbenv/bin/xtb --gfn 2 --chrg 0 --uhf 0 3_24_Index_0-opt-2-5-101_preQMOPTprefit_xyzformat.xyz --opt --input xtb-opt-2-5-101_constr.txt

   ID    Z sym.   atoms
    1    6 C      1, 3-9
    2    7 N      2
    3    1 H      10, 11, 13-19
    4    8 O      12
constraining angle 1 2 5 14 to  100.9864098°, actual value:  100.9864098°
constraining angle 1 2 3 4 to   37.0735797°, actual value:   37.0735797°
constraining angle 12 1 2 3 to  357.9965302°, actual value:   -2.0034698°

          :  Hamiltonian                  GFN2-xTB          :
 * total energy  :   -28.6898304 Eh     change       -0.8933405E-09 Eh
 * total energy  :   -28.6983135 Eh     change       -0.8483114E-02 Eh
 * total energy  :   -28.6994391 Eh     change       -0.1125579E-02 Eh
 * total energy  :   -28.6989564 Eh     change        0.4827173E-03 Eh
 * total energy  :   -28.7000170 Eh     change       -0.1060558E-02 Eh
 * total energy  :   -28.7001617 Eh     change       -0.1447745E-03 Eh
 * total energy  :   -28.7002637 Eh     change       -0.1019519E-03 Eh
 * total energy  :   -28.7003456 Eh     change       -0.8189197E-04 Eh
 * total energy  :   -28.7003923 Eh     change       -0.4674489E-04 Eh
 * total energy  :   -28.7004011 Eh     change       -0.8807235E-05 Eh
 * total energy  :   -28.7004036 Eh     change       -0.2485044E-05 Eh
 * total energy  :   -28.7004045 Eh     change       -0.8479028E-06 Eh
   *** GEOMETRY OPTIMIZATION CONVERGED AFTER 12 ITERATIONS ***

 final structure:
================
19
 xtb: 6.5.0 (97a52f5)
C            2.21493026441695        0.45752280183623        0.60431533836120
N            1.07719987896355       -0.19468494648674        0.94186838007668
C           -0.10877483840170       -0.08650507629341        0.17727933362141
C           -0.04642884930949       -0.00814696204234       -1.21137759165746
C            1.02597379479714       -0.95720385284006        2.17013185533119
C           -1.35320873216233       -0.08810989601131        0.80164471468342
C           -2.50998680142502        0.00107187777683        0.04856815615436
C           -2.44440606248982        0.09041809477552       -1.33060362210048
C           -1.20850689050211        0.08621145463175       -1.95426360902046
H           -1.43006512346388       -0.14665037492531        1.87590446926715
H            0.91040572898974       -0.01134452072598       -1.70540324489626
O            2.39420870904566        1.15966452548737       -0.35825029218259
H            0.49984115378459       -1.89666850241428        1.99408459317402
H            0.51034346823535       -0.41217452023135        2.96518607486796
H            2.03901743851566       -1.17775531663138        2.50244901685598
H           -3.46810274996051        0.00268545915275        0.54724063512610
H           -1.14518047059064        0.14942032154083       -3.03023053663119
H           -3.34984045888190        0.16136723766749       -1.91417463492090
H            3.01626053043888        0.26966620573351        1.34621598388988

          :  Hamiltonian                  GFN2-xTB          :
         :: total energy             -28.700404456764 Eh    ::
         :: gradient norm              0.000697386580 Eh/a0 ::
         :: HOMO-LUMO gap              3.977308676545 eV    ::
         :: SCC energy               -29.150362111223 Eh    ::
         :: -> dispersion             -0.015979485503 Eh    ::
         :: repulsion energy           0.449902569511 Eh    ::

    * Orbital Energies and Occupations

         #    Occupation            Energy/Eh            Energy/eV
      -------------------------------------------------------------
         1        2.0000           -0.7023278             -19.1113
       ...           ...                  ...                  ...
        14        2.0000           -0.5135250             -13.9737
        15        2.0000           -0.5078541             -13.8194
        16        2.0000           -0.4987320             -13.5712
        17        2.0000           -0.4945835             -13.4583
        18        2.0000           -0.4859542             -13.2235
        19        2.0000           -0.4834808             -13.1562
        20        2.0000           -0.4802288             -13.0677
        21        2.0000           -0.4408049             -11.9949
        22        2.0000           -0.4398335             -11.9685
        23        2.0000           -0.4248370             -11.5604
        24        2.0000           -0.4098749             -11.1533
        25        2.0000           -0.3975821             -10.8188
        26        2.0000           -0.3856036             -10.4928 (HOMO)
        27                         -0.2394402              -6.5155 (LUMO)
        28                         -0.2275192              -6.1911
        29                         -0.2004883              -5.4556
        30                         -0.0946384              -2.5752
        31                         -0.0065377              -0.1779
        32                          0.0713640               1.9419
        33                          0.1087054               2.9580
        34                          0.1318908               3.5889
        35                          0.1494088               4.0656
        36                          0.1584139               4.3107
        37                          0.1679413               4.5699
       ...                                ...                  ...
        49                          0.6702747              18.2391
      -------------------------------------------------------------
                  HL-Gap            0.1461634 Eh            3.9773 eV

     #   Z          covCN         q      C6AA      α(0)
     1   6 C        2.712     0.248    22.839     7.823
     2   7 N        2.734    -0.077    22.735     7.082
     3   6 C        2.920     0.069    26.456     8.435
     4   6 C        2.922    -0.037    28.928     8.820
     5   6 C        3.701    -0.048    21.600     6.646
     6   6 C        2.922    -0.049    29.211     8.863
     7   6 C        2.921    -0.029    28.734     8.790
     8   6 C        2.919    -0.034    28.837     8.806
     9   6 C        2.921    -0.027    28.664     8.780
    10   1 H        0.926     0.035     2.523     2.484
    11   1 H        0.926     0.063     2.159     2.298
    12   8 O        0.857    -0.400    21.686     6.244
    13   1 H        0.924     0.062     2.179     2.309
    14   1 H        0.924     0.056     2.252     2.347
    15   1 H        0.925     0.059     2.210     2.325
    16   1 H        0.926     0.034     2.524     2.484
    17   1 H        0.926     0.040     2.452     2.449
    18   1 H        0.926     0.035     2.515     2.480
    19   1 H        0.922     0.001     3.049     2.731

Wiberg/Mayer (AO) data.
largest (>0.10) Wiberg bond orders for each atom

     #   Z sym  total        # sym  WBO       # sym  WBO       # sym  WBO
 ---------------------------------------------------------------------------
     1   6 C    3.954 --    12 O    1.735     2 N    1.235    19 H    0.917
     2   7 N    3.542 --     1 C    1.235     3 C    1.029     5 C    0.999
                            12 O    0.193
     3   6 C    3.960 --     6 C    1.385     4 C    1.383     2 N    1.029
                             8 C    0.101
     4   6 C    3.989 --     9 C    1.450     3 C    1.383    11 H    0.965
                             7 C    0.109
     5   6 C    3.970 --     2 N    0.999    13 H    0.979    15 H    0.977
                            14 H    0.973
     6   6 C    3.991 --     7 C    1.448     3 C    1.385    10 H    0.967
                             9 C    0.108
     7   6 C    3.992 --     6 C    1.448     8 C    1.436    16 H    0.971
                             4 C    0.109
     8   6 C    3.992 --     7 C    1.436     9 C    1.434    18 H    0.971
                             3 C    0.101
     9   6 C    3.992 --     4 C    1.450     8 C    1.434    17 H    0.970
                             6 C    0.108
    10   1 H    0.999 --     6 C    0.967
    11   1 H    0.996 --     4 C    0.965
    12   8 O    2.044 --     1 C    1.735     2 N    0.193
    13   1 H    0.996 --     5 C    0.979
    14   1 H    0.997 --     5 C    0.973
    15   1 H    0.996 --     5 C    0.977
    16   1 H    0.998 --     7 C    0.971
    17   1 H    0.998 --     9 C    0.970
    18   1 H    0.999 --     8 C    0.971
    19   1 H    0.999 --     1 C    0.917
 ---------------------------------------------------------------------------

molecular dipole:
                 x           y           z       tot (Debye)
 q only:       -0.730      -0.945       0.858
   full:       -0.692      -1.044       1.119       4.269

           -------------------------------------------------
          | TOTAL ENERGY              -28.700404456764 Eh   |
          | GRADIENT NORM               0.000697386580 Eh/α |
          | HOMO-LUMO GAP               3.977308676545 eV   |
           -------------------------------------------------

 * finished run on 2023/11/18 at 08:24:30.297
