   * xtb version 6.5.0 (97a52f5) compiled by 'conda@d2599ee0d4f4' on 2022-05-15
          program call               : /home/liuchw/anaconda3/envs/xtbenv/bin/xtb --gfn 2 --chrg 0 --uhf 0 3_24_Index_0-opt-2-5-161_preQMOPTprefit_xyzformat.xyz --opt --input xtb-opt-2-5-161_constr.txt

   ID    Z sym.   atoms
    1    6 C      1, 3-9
    2    7 N      2
    3    1 H      10, 11, 13-19
    4    8 O      12
constraining angle 1 2 5 14 to  161.0142151°, actual value:  161.0142151°
constraining angle 1 2 3 4 to   37.0984114°, actual value:   37.0984114°
constraining angle 12 1 2 3 to  358.0022806°, actual value:   -1.9977194°

          :  Hamiltonian                  GFN2-xTB          :
 * total energy  :   -28.6881190 Eh     change       -0.1217089E-08 Eh
 * total energy  :   -28.6967172 Eh     change       -0.8598153E-02 Eh
 * total energy  :   -28.6969346 Eh     change       -0.2174143E-03 Eh
 * total energy  :   -28.6973154 Eh     change       -0.3808156E-03 Eh
 * total energy  :   -28.6980011 Eh     change       -0.6856748E-03 Eh
 * total energy  :   -28.6981411 Eh     change       -0.1400659E-03 Eh
 * total energy  :   -28.6981906 Eh     change       -0.4944993E-04 Eh
 * total energy  :   -28.6982408 Eh     change       -0.5018205E-04 Eh
 * total energy  :   -28.6982719 Eh     change       -0.3111631E-04 Eh
 * total energy  :   -28.6982853 Eh     change       -0.1336096E-04 Eh
 * total energy  :   -28.6982900 Eh     change       -0.4744569E-05 Eh
   *** GEOMETRY OPTIMIZATION CONVERGED AFTER 11 ITERATIONS ***

 final structure:
================
19
 xtb: 6.5.0 (97a52f5)
C            2.19531707172170        0.43875313812022        0.58408918795103
N            1.05694061914181       -0.18934796741908        0.96159120612283
C           -0.13294256020235       -0.10309194813904        0.19596578513181
C           -0.07528840148298       -0.08902544655214       -1.19413344494573
C            1.08798678176493       -1.03583321757480        2.13756223941016
C           -1.36789459942535        0.03512756137920        0.82465311331544
C           -2.52337654622222        0.14892074531726        0.07438037380385
C           -2.46417716414095        0.14275022105819       -1.30865600852659
C           -1.23626418526400        0.02954879824187       -1.93652982663939
H           -1.43496121037379        0.07721316791187        1.90173145702142
H            0.87599968599493       -0.17512640543665       -1.69172001118246
O            2.37136406777227        1.09520546943542       -0.41110367325260
H            1.52644407208856       -2.00831022686495        1.89377777369405
H            0.08281892574319       -1.19963766891147        2.51379898131801
H            1.68359624283380       -0.57096894581671        2.92345827713683
H           -3.47397659018369        0.25477144037073        0.57624654235770
H           -1.17755762497355        0.03238746533370       -3.01462096907996
H           -3.36864543372818        0.23363551016327       -1.89092457553438
H            2.99829882893581        0.28181329938308        1.33101854189793

          :  Hamiltonian                  GFN2-xTB          :
         :: total energy             -28.698290000101 Eh    ::
         :: gradient norm              0.000785609592 Eh/a0 ::
         :: HOMO-LUMO gap              3.980113575983 eV    ::
         :: SCC energy               -29.148053872528 Eh    ::
         :: -> dispersion             -0.015949980624 Eh    ::
         :: repulsion energy           0.449702554373 Eh    ::

    * Orbital Energies and Occupations

         #    Occupation            Energy/Eh            Energy/eV
      -------------------------------------------------------------
         1        2.0000           -0.7009748             -19.0745
       ...           ...                  ...                  ...
        14        2.0000           -0.5125771             -13.9479
        15        2.0000           -0.5071115             -13.7992
        16        2.0000           -0.4993711             -13.5886
        17        2.0000           -0.4955575             -13.4848
        18        2.0000           -0.4865513             -13.2397
        19        2.0000           -0.4832704             -13.1505
        20        2.0000           -0.4805686             -13.0769
        21        2.0000           -0.4417394             -12.0203
        22        2.0000           -0.4389159             -11.9435
        23        2.0000           -0.4251850             -11.5699
        24        2.0000           -0.4104676             -11.1694
        25        2.0000           -0.3966853             -10.7944
        26        2.0000           -0.3852343             -10.4828 (HOMO)
        27                         -0.2389678              -6.5026 (LUMO)
        28                         -0.2285223              -6.2184
        29                         -0.2026485              -5.5143
        30                         -0.0972119              -2.6453
        31                         -0.0094245              -0.2565
        32                          0.0825103               2.2452
        33                          0.1033964               2.8136
        34                          0.1349515               3.6722
        35                          0.1476251               4.0171
        36                          0.1570228               4.2728
        37                          0.1775564               4.8316
       ...                                ...                  ...
        49                          0.6706050              18.2481
      -------------------------------------------------------------
                  HL-Gap            0.1462665 Eh            3.9801 eV

     #   Z          covCN         q      C6AA      α(0)
     1   6 C        2.714     0.248    22.840     7.823
     2   7 N        2.734    -0.081    22.810     7.093
     3   6 C        2.918     0.069    26.445     8.433
     4   6 C        2.923    -0.036    28.884     8.813
     5   6 C        3.701    -0.050    21.639     6.652
     6   6 C        2.923    -0.046    29.151     8.854
     7   6 C        2.920    -0.029    28.728     8.789
     8   6 C        2.919    -0.033    28.820     8.803
     9   6 C        2.921    -0.026    28.655     8.778
    10   1 H        0.926     0.033     2.542     2.493
    11   1 H        0.926     0.063     2.168     2.303
    12   8 O        0.857    -0.402    21.717     6.248
    13   1 H        0.924     0.053     2.286     2.365
    14   1 H        0.925     0.068     2.108     2.270
    15   1 H        0.925     0.056     2.242     2.342
    16   1 H        0.926     0.035     2.514     2.479
    17   1 H        0.926     0.040     2.443     2.444
    18   1 H        0.926     0.036     2.504     2.474
    19   1 H        0.922     0.001     3.039     2.726

Wiberg/Mayer (AO) data.
largest (>0.10) Wiberg bond orders for each atom

     #   Z sym  total        # sym  WBO       # sym  WBO       # sym  WBO
 ---------------------------------------------------------------------------
     1   6 C    3.955 --    12 O    1.735     2 N    1.238    19 H    0.919
     2   7 N    3.533 --     1 C    1.238     3 C    1.022     5 C    0.995
                            12 O    0.196
     3   6 C    3.961 --     4 C    1.388     6 C    1.385     2 N    1.022
                             8 C    0.102
     4   6 C    3.989 --     9 C    1.446     3 C    1.388    11 H    0.966
                             7 C    0.109
     5   6 C    3.969 --     2 N    0.995    15 H    0.979    13 H    0.976
                            14 H    0.976
     6   6 C    3.991 --     7 C    1.451     3 C    1.385    10 H    0.964
                             9 C    0.109
     7   6 C    3.992 --     6 C    1.451     8 C    1.433    16 H    0.971
                             4 C    0.109
     8   6 C    3.992 --     9 C    1.438     7 C    1.433    18 H    0.971
                             3 C    0.102
     9   6 C    3.992 --     4 C    1.446     8 C    1.438    17 H    0.970
                             6 C    0.109
    10   1 H    0.999 --     6 C    0.964
    11   1 H    0.996 --     4 C    0.966
    12   8 O    2.042 --     1 C    1.735     2 N    0.196
    13   1 H    0.997 --     5 C    0.976
    14   1 H    0.995 --     5 C    0.976
    15   1 H    0.996 --     5 C    0.979
    16   1 H    0.998 --     7 C    0.971
    17   1 H    0.998 --     9 C    0.970
    18   1 H    0.999 --     8 C    0.971
    19   1 H    0.999 --     1 C    0.919
 ---------------------------------------------------------------------------

molecular dipole:
                 x           y           z       tot (Debye)
 q only:       -0.764      -0.923       0.867
   full:       -0.712      -1.031       1.118       4.270

           -------------------------------------------------
          | TOTAL ENERGY              -28.698290000101 Eh   |
          | GRADIENT NORM               0.000785609592 Eh/α |
          | HOMO-LUMO GAP               3.980113575983 eV   |
           -------------------------------------------------

 * finished run on 2023/11/18 at 08:23:47.978
