                               Psi4 1.6 release

  ==> Input File <==

--------------------------------------------------------------------------
molecule {
0 1
 C    2.187058   -0.831800    0.288185
 N    1.073191   -0.400405    0.916760
 C   -0.125713   -0.185438    0.182388
 C   -0.110175    0.627067   -0.943942
 C    1.078766   -0.056853    2.319596
 C   -1.311710   -0.788312    0.583414
 C   -2.473100   -0.571505   -0.135226
 C   -2.458257    0.240127   -1.257065
 C   -1.274625    0.832985   -1.661709
 H   -1.324802   -1.439962    1.444721
 H    0.815905    1.081410   -1.258691
 O    2.284527   -1.102470   -0.882304
 H    1.946409   -0.501367    2.804382
 H    0.175119   -0.421212    2.806160
 H    1.120663    1.029683    2.446821
 H   -3.391367   -1.045821    0.178250
 H   -1.257031    1.463446   -2.538012
 H   -3.366756    0.405332   -1.816550
 H    3.035584   -0.936121    0.993409
}
memory 20GB
set_num_threads(5)
psi4_io.set_default_path("/scratch/liuchw/Psi4-3_24_Index_0-farH_in17")
set freeze_core True
E, wfn = energy('wb97x-d/6-311+G*',return_wfn=True)
oeprop(wfn,"WIBERG_LOWDIN_INDICES")
clean()
--------------------------------------------------------------------------

    Molecular point group: c1

    Geometry (in Angstrom), charge = 0, multiplicity = 1:

       Center              X                  Y                   Z               Mass
    ------------   -----------------  -----------------  -----------------  -----------------
         C            2.220730845822    -0.591825112247     0.315335230173    12.000000000000
         N            1.106863845822    -0.160430112247     0.943910230173    14.003074004430
         C           -0.092040154178     0.054536887753     0.209538230173    12.000000000000
         C           -0.076502154178     0.867041887753    -0.916791769827    12.000000000000
         C            1.112438845822     0.183121887753     2.346746230173    12.000000000000
         C           -1.278037154178    -0.548337112247     0.610564230173    12.000000000000
         C           -2.439427154178    -0.331530112247    -0.108075769827    12.000000000000
         C           -2.424584154178     0.480101887753    -1.229914769827    12.000000000000
         C           -1.240952154178     1.072959887753    -1.634558769827    12.000000000000
         H           -1.291129154178    -1.199987112247     1.471871230173     1.007825032230
         H            0.849577845822     1.321384887753    -1.231540769827     1.007825032230
         O            2.318199845822    -0.862495112247    -0.855153769827    15.994914619570
         H            1.980081845822    -0.261392112247     2.831532230173     1.007825032230
         H            0.208791845822    -0.181237112247     2.833310230173     1.007825032230
         H            1.154335845822     1.269657887753     2.473971230173     1.007825032230
         H           -3.357694154178    -0.805846112247     0.205400230173     1.007825032230
         H           -1.223358154178     1.703420887753    -2.510861769827     1.007825032230
         H           -3.333083154178     0.645306887753    -1.789399769827     1.007825032230
         H            3.069256845822    -0.696146112247     1.020559230173     1.007825032230

  Charge       = 0
  Multiplicity = 1
  Basis Set: 6-311+G*
    Blend: 6-311+G*
  Basis Set: (6-311+G* AUX)
    Blend: HEAVY-AUG-CC-PVTZ-JKFIT

    Orbital Energies [Eh]
    ---------------------

    Doubly Occupied:

       1A    -19.216561     2A    -14.478025     3A    -10.385410
       4A    -10.334900     5A    -10.332003     6A    -10.297099
       7A    -10.294865     8A    -10.292835     9A    -10.292047
      10A    -10.291590    11A     -1.153397    12A     -1.066094
      13A     -0.967937    14A     -0.864839    15A     -0.861264
      16A     -0.820879    17A     -0.749374    18A     -0.715699
      19A     -0.672078    20A     -0.615830    21A     -0.609654
      22A     -0.576507    23A     -0.573528    24A     -0.543593
      25A     -0.536149    26A     -0.518382    27A     -0.507906
      28A     -0.500139    29A     -0.483697    30A     -0.467283
      31A     -0.450423    32A     -0.440777    33A     -0.366188
      34A     -0.351421    35A     -0.336435    36A     -0.314572

  @DF-RKS Final Energy:  -440.19837041788873

   => Energetics <=

    Nuclear Repulsion Energy =            499.7662664442817686
    One-Electron Energy =               -1586.2027157452839674
    Two-Electron Energy =                 689.1976194439625942
    DFT Exchange-Correlation Energy =     -42.9493851985319850
    Empirical Dispersion Energy =          -0.0101553623172392
    VV10 Nonlocal Energy =                  0.0000000000000000
    Total Energy =                       -440.1983704178887251
 Dipole X            :          1.2073316           -1.8137858           -0.6064542
 Dipole Y            :         -1.1708015            1.6792313            0.5084297
 Dipole Z            :         -3.6472244            4.9662769            1.3190525
 Magnitude           :                                                    1.5382415
*** Psi4 exiting successfully. Buy a developer a beer!
