                               Psi4 1.6 release

  ==> Input File <==

--------------------------------------------------------------------------
molecule {
0 1
 C    1.657043    0.839643    1.624615
 N    1.060153   -0.189574    0.974365
 C   -0.129993   -0.033585    0.218682
 C   -0.455554   -0.932163   -0.795833
 C    1.567406   -1.527416    1.201873
 C   -1.021441    1.000861    0.499712
 C   -2.188177    1.140408   -0.228717
 C   -2.499630    0.250471   -1.241312
 C   -1.625214   -0.784557   -1.518964
 H   -0.799871    1.703331    1.284192
 H    0.203971   -1.743999   -1.057632
 O    1.324594    1.997849    1.644915
 H    2.570019   -1.473216    1.620798
 H    1.607087   -2.101082    0.279173
 H    0.919527   -2.061650    1.903810
 H   -2.862348    1.950038    0.007267
 H   -1.851172   -1.489591   -2.305524
 H   -3.412711    0.359872   -1.806466
 H    2.559997    0.493147    2.165634
}
memory 20GB
set_num_threads(5)
psi4_io.set_default_path("/scratch/liuchw/Psi4-3_24_Index_0-farH_in17")
set freeze_core True
E, wfn = energy('wb97x-d/6-311+G*',return_wfn=True)
oeprop(wfn,"WIBERG_LOWDIN_INDICES")
clean()
--------------------------------------------------------------------------

    Molecular point group: c1

    Geometry (in Angstrom), charge = 0, multiplicity = 1:

       Center              X                  Y                   Z               Mass
    ------------   -----------------  -----------------  -----------------  -----------------
         C            1.815395268375     0.659382812355     1.334520023961    12.000000000000
         N            1.218505268375    -0.369834187645     0.684270023961    14.003074004430
         C            0.028359268375    -0.213845187645    -0.071412976039    12.000000000000
         C           -0.297201731625    -1.112423187645    -1.085927976039    12.000000000000
         C            1.725758268375    -1.707676187645     0.911778023961    12.000000000000
         C           -0.863088731625     0.820600812355     0.209617023961    12.000000000000
         C           -2.029824731625     0.960147812355    -0.518811976039    12.000000000000
         C           -2.341277731625     0.070210812355    -1.531406976039    12.000000000000
         C           -1.466861731625    -0.964817187645    -1.809058976039    12.000000000000
         H           -0.641518731625     1.523070812355     0.994097023961     1.007825032230
         H            0.362323268375    -1.924259187645    -1.347726976039     1.007825032230
         O            1.482946268375     1.817588812355     1.354820023961    15.994914619570
         H            2.728371268375    -1.653476187645     1.330703023961     1.007825032230
         H            1.765439268375    -2.281342187645    -0.010921976039     1.007825032230
         H            1.077879268375    -2.241910187645     1.613715023961     1.007825032230
         H           -2.703995731625     1.769777812355    -0.282827976039     1.007825032230
         H           -1.692819731625    -1.669851187645    -2.595618976039     1.007825032230
         H           -3.254358731625     0.179611812355    -2.096560976039     1.007825032230
         H            2.718349268375     0.312886812355     1.875539023961     1.007825032230

  Charge       = 0
  Multiplicity = 1
  Basis Set: 6-311+G*
    Blend: 6-311+G*
  Basis Set: (6-311+G* AUX)
    Blend: HEAVY-AUG-CC-PVTZ-JKFIT

    Orbital Energies [Eh]
    ---------------------

    Doubly Occupied:

       1A    -19.223932     2A    -14.487662     3A    -10.391243
       4A    -10.340161     5A    -10.334364     6A    -10.295689
       7A    -10.293128     8A    -10.289494     9A    -10.287528
      10A    -10.285097    11A     -1.159367    12A     -1.072364
      13A     -0.966521    14A     -0.866317    15A     -0.859582
      16A     -0.822466    17A     -0.753276    18A     -0.711253
      19A     -0.674068    20A     -0.618383    21A     -0.607724
      22A     -0.578350    23A     -0.574885    24A     -0.547511
      25A     -0.537572    26A     -0.515887    27A     -0.509369
      28A     -0.499971    29A     -0.490905    30A     -0.467564
      31A     -0.450969    32A     -0.437231    33A     -0.383703
      34A     -0.352073    35A     -0.335581    36A     -0.306428

  @DF-RKS Final Energy:  -440.19695052283714

   => Energetics <=

    Nuclear Repulsion Energy =            499.0073514167324333
    One-Electron Energy =               -1584.5843382059583746
    Two-Electron Energy =                 688.3424900099364550
    DFT Exchange-Correlation Energy =     -42.9526402883890768
    Empirical Dispersion Energy =          -0.0098134551587336
    VV10 Nonlocal Energy =                  0.0000000000000000
    Total Energy =                       -440.1969505228372554
 Dipole X            :         -0.2589147            0.3407655            0.0818508
 Dipole Y            :          4.1041890           -5.6014081           -1.4972191
 Dipole Z            :          0.3362240           -0.4825893           -0.1463653
 Magnitude           :                                                    1.5065813
*** Psi4 exiting successfully. Buy a developer a beer!
