                               Psi4 1.6 release

  ==> Input File <==

--------------------------------------------------------------------------
molecule {
0 1
C 1.984075411262 -0.425096198732 0.757785897996
N 0.796640920971 0.036284568551 0.052986394344
C -0.370009779273 -0.666758620589 0.532197956011
C -1.609222523401 -0.484837582797 -0.308645683636
C 0.647890183453 1.478971752163 0.206124664211
H -0.163734525536 -1.74663203944 0.53833574819
H -0.643478809668 -0.411142506991 1.580125497137
O -1.700800980599 0.202066166593 -1.313560494123
H 0.512277152049 1.776661871134 1.262119009699
H -0.204322303605 1.821871084313 -0.377985001474
H 2.112172363122 -1.499141253415 0.59960544021
H 1.941588773764 -0.234479011653 1.845492588957
H 2.86006657441 0.087895714005 0.354184441312
H -2.484624624388 -1.057777853573 0.065915101544
H 1.546604877879 1.968881529833 -0.175340884465
}
memory 20GB
set_num_threads(5)
psi4_io.set_default_path("/scratch/liuchw/Psi4-4_27_Index_0-farH_in17")
set maxiter 500
set freeze_core True
set PROPERTIES_ORIGIN ["COM"]
set cubeprop_tasks ['esp']
set basis aug-cc-pVTZ
E, wfn = properties('mp2',properties=['dipole','GRID_ESP','WIBERG_LOWDIN_INDICES','MULLIKEN_CHARGES'],return_wfn=True)
cubeprop(wfn)
fchk(wfn, "4_27_Index_0-esp.fchk")
clean()
--------------------------------------------------------------------------

    Molecular point group: c1
  Charge       = 0
  Multiplicity = 1
  Basis Set: AUG-CC-PVTZ
    Blend: AUG-CC-PVTZ
  Basis Set: (AUG-CC-PVTZ AUX)
    Blend: AUG-CC-PVTZ-JKFIT

    Orbital Energies [Eh]
    ---------------------

    Doubly Occupied:

       1A    -20.560150     2A    -15.560147     3A    -11.337867
       4A    -11.275472     5A    -11.251249     6A    -11.240898
       7A     -1.387256     8A     -1.241208     9A     -1.010539
      10A     -0.955405    11A     -0.858362    12A     -0.773932
      13A     -0.687087    14A     -0.661080    15A     -0.648757
      16A     -0.620957    17A     -0.582027    18A     -0.565721
      19A     -0.544188    20A     -0.520016    21A     -0.518232
      22A     -0.492205    23A     -0.424162    24A     -0.370949

  @DF-RHF Final Energy:  -286.09406436968851

   => Energetics <=

    Nuclear Repulsion Energy =            246.8499144814785780
    One-Electron Energy =                -877.7122233911901503
    Two-Electron Energy =                 344.7682445400230904
    Total Energy =                       -286.0940643696885104
  Basis Set: (AUG-CC-PVTZ AUX)
    Blend: AUG-CC-PVTZ-RI
    Molecular point group: c1

    Geometry (in Angstrom), charge = 0, multiplicity = 1:

       Center              X                  Y                   Z               Mass
    ------------   -----------------  -----------------  -----------------  -----------------
         C            2.015045787525    -0.462757868643     0.761022042555    12.000000000000
         N            0.827611297234    -0.001377101360     0.056222538903    14.003074004430
         C           -0.339039403010    -0.704420290500     0.535434100570    12.000000000000
         C           -1.578252147138    -0.522499252708    -0.305409539077    12.000000000000
         C            0.678860559716     1.441310082252     0.209360808770    12.000000000000
         H           -0.132764149273    -1.784293709351     0.541571892749     1.007825032230
         H           -0.612508433405    -0.448804176902     1.583361641696     1.007825032230
         O           -1.669830604336     0.164404496682    -1.310324349564    15.994914619570
         H            0.543247528312     1.739000201223     1.265355154258     1.007825032230
         H           -0.173351927342     1.784209414402    -0.374748856915     1.007825032230
         H            2.143142739385    -1.536802923326     0.602841584769     1.007825032230
         H            1.972559150027    -0.272140681564     1.848728733516     1.007825032230
         H            2.891036950673     0.050234044094     0.357420585871     1.007825032230
         H           -2.453654248125    -1.095439523484     0.069151246103     1.007825032230
         H            1.577575254142     1.931219859922    -0.172104739906     1.007825032230

  Basis Set: AUG-CC-PVTZ
    Blend: AUG-CC-PVTZ
  Basis Set: (AUG-CC-PVTZ AUX)
    Blend: AUG-CC-PVTZ-JKFIT
	 Reference Energy          =    -286.0940643696885104 [Eh]
	 Singles Energy            =      -0.0000000000000000 [Eh]
	 Same-Spin Energy          =      -0.2711189839080831 [Eh]
	 Opposite-Spin Energy      =      -0.8772315227173257 [Eh]
	 Correlation Energy        =      -1.1483505066254089 [Eh]
	 Total Energy              =    -287.2424148763139442 [Eh]

	 ================> DF-SCS-MP2 Energies <==================
	-----------------------------------------------------------
	 SCS Same-Spin Scale       =       0.3333333333333333 [-]
	 SCS Opposite-Spin Scale   =       1.2000000000000000 [-]
	 SCS Same-Spin Energy      =      -0.0903729946360277 [Eh]
	 SCS Opposite-Spin Energy  =      -1.0526778272607908 [Eh]
	 SCS Correlation Energy    =      -1.1430508218968185 [Eh]
	 SCS Total Energy          =    -287.2371151915853034 [Eh]
	-----------------------------------------------------------

 Dipole X            :         -5.0941422            5.3849747            0.2908325
 Dipole Y            :         -0.7690388            0.3450164           -0.4240225
 Dipole Z            :         -4.2920616            5.3573446            1.0652831
 Magnitude           :                                                    1.1828806

  Mulliken Charges: (a.u.)
   Center  Symbol    Alpha    Beta     Spin     Total
       1     C     3.51697  3.51697  0.00000 -1.03394
       2     N     3.52585  3.52585  0.00000 -0.05170
       3     C     3.09750  3.09750  0.00000 -0.19501
       4     C     3.15816  3.15816  0.00000 -0.31633
       5     C     3.49178  3.49178  0.00000 -0.98357
       6     H     0.29922  0.29922  0.00000  0.40157
       7     H     0.34058  0.34058  0.00000  0.31885
       8     O     4.30534  4.30534  0.00000 -0.61068
       9     H     0.34418  0.34418  0.00000  0.31164
      10     H     0.30059  0.30059  0.00000  0.39881
      11     H     0.33471  0.33471  0.00000  0.33058
      12     H     0.34363  0.34363  0.00000  0.31273
      13     H     0.33066  0.33066  0.00000  0.33867
      14     H     0.26330  0.26330  0.00000  0.47340
      15     H     0.34751  0.34751  0.00000  0.30498

   Total alpha = 24.00000, Total beta = 24.00000, Total charge =  0.00000

  Basis Set: AUG-CC-PVTZ
    Blend: AUG-CC-PVTZ
*** Psi4 exiting successfully. Buy a developer a beer!
