                               Psi4 1.6 release

  ==> Input File <==

--------------------------------------------------------------------------
molecule {
0 1
C          7.86250       -0.64920        1.54090
N          6.60930       -0.19800        0.91940
C          5.41700       -0.91200        1.42550
C          4.20790       -0.75070        0.46350
C          6.49030        1.26440        0.98430
H          5.63850       -1.98490        1.46880
H          5.16110       -0.54490        2.42510
N          2.96770       -1.22590        0.93830
O          4.37860       -0.19540       -0.62670
C          7.57970        1.96400        0.13400
H          6.57290        1.59800        2.02760
H          5.51790        1.62350        0.63090
C          9.07360        0.29770        1.30540
H          8.11140       -1.63500        1.12980
H          7.74260       -0.77830        2.62420
H          7.81730        2.94410        0.56150
H          7.25290        2.08490       -0.90420
H          9.99430       -0.27830        1.16640
H          9.19500        0.98920        2.14700
H          2.91160       -1.65890        1.82070
H          2.15810       -1.12460        0.38730
H          8.45410        1.34730        0.14380
H          8.87980        0.86250        0.41750
}
memory 208GB
set_num_threads(51)
psi4_io.set_default_path("/scratch/liuchw/Psi4-farH_in17")
set maxiter 500
set freeze_core True
set PROPERTIES_ORIGIN ["COM"]
set cubeprop_tasks ['esp']
set basis MINIX
E, wfn = properties('hf',properties=['dipole','WIBERG_LOWDIN_INDICES','MULLIKEN_CHARGES'],return_wfn=True)
cubeprop(wfn)
fchk(wfn, "farH_in17-esp_frag.fchk")
clean()
--------------------------------------------------------------------------

    Molecular point group: c1

    Geometry (in Angstrom), charge = 0, multiplicity = 1:

       Center              X                  Y                   Z               Mass
    ------------   -----------------  -----------------  -----------------  -----------------
         C            1.807122802032    -0.610598773192     0.753841521377    12.000000000000
         N            0.553922802032    -0.159398773192     0.132341521377    14.003074004430
         C           -0.638377197968    -0.873398773192     0.638441521377    12.000000000000
         C           -1.847477197968    -0.712098773192    -0.323558478623    12.000000000000
         C            0.434922802032     1.303001226808     0.197241521377    12.000000000000
         H           -0.416877197968    -1.946298773192     0.681741521377     1.007825032230
         H           -0.894277197968    -0.506298773192     1.638041521377     1.007825032230
         N           -3.087677197968    -1.187298773192     0.151241521377    14.003074004430
         O           -1.676777197968    -0.156798773192    -1.413758478623    15.994914619570
         C            1.524322802032     2.002601226808    -0.653058478623    12.000000000000
         H            0.517522802032     1.636601226808     1.240541521377     1.007825032230
         H           -0.537477197968     1.662101226808    -0.156158478623     1.007825032230
         C            3.018222802032     0.336301226808     0.518341521377    12.000000000000
         H            2.056022802032    -1.596398773192     0.342741521377     1.007825032230
         H            1.687222802032    -0.739698773192     1.837141521377     1.007825032230
         H            1.761922802032     2.982701226808    -0.225558478623     1.007825032230
         H            1.197522802032     2.123501226808    -1.691258478623     1.007825032230
         H            3.938922802032    -0.239698773192     0.379341521377     1.007825032230
         H            3.139622802032     1.027801226808     1.359941521377     1.007825032230
         H           -3.143777197968    -1.620298773192     1.033641521377     1.007825032230
         H           -3.897277197968    -1.085998773192    -0.399758478623     1.007825032230
         H            2.398722802032     1.385901226808    -0.643258478623     1.007825032230
         H            2.824422802032     0.901101226808    -0.369558478623     1.007825032230

  Charge       = 0
  Multiplicity = 1
  Basis Set: MINIX
    Blend: MINIX
  Basis Set: (MINIX AUX)
    Blend: DEF2-UNIVERSAL-JKFIT

    Orbital Energies [Eh]
    ---------------------

    Doubly Occupied:

       1A    -20.289079     2A    -15.413949     3A    -15.369600
       4A    -11.314296     5A    -11.205604     6A    -11.181348
       7A    -11.171610     8A    -11.122435     9A    -11.106731
      10A     -1.360069    11A     -1.216034    12A     -1.177905
      13A     -1.053605    14A     -1.000015    15A     -0.955362
      16A     -0.834143    17A     -0.818529    18A     -0.764506
      19A     -0.706480    20A     -0.683344    21A     -0.654918
      22A     -0.637524    23A     -0.623413    24A     -0.605348
      25A     -0.580194    26A     -0.546655    27A     -0.540748
      28A     -0.514542    29A     -0.505234    30A     -0.497149
      31A     -0.479468    32A     -0.467657    33A     -0.387755
      34A     -0.381832    35A     -0.372825    36A     -0.326115

  @DF-RHF Final Energy:  -416.06005869159162

   => Energetics <=

    Nuclear Repulsion Energy =            486.3522305081662580
    One-Electron Energy =               -1531.0925206075066853
    Two-Electron Energy =                 628.6802314077488063
    Total Energy =                       -416.0600586915916210
 Dipole X            :        -10.2976717            9.9666834           -0.3309883
 Dipole Y            :         -4.2131446            3.7389901           -0.4741545
 Dipole Z            :         -3.1942195            4.7055873            1.5113678
 Magnitude           :                                                    1.6182114

  Mulliken Charges: (a.u.)
   Center  Symbol    Alpha    Beta     Spin     Total
       1     C     3.06890  3.06890  0.00000 -0.13780
       2     N     3.65553  3.65553  0.00000 -0.31107
       3     C     3.07483  3.07483  0.00000 -0.14966
       4     C     2.80451  2.80451  0.00000  0.39099
       5     C     3.06897  3.06897  0.00000 -0.13793
       6     H     0.42849  0.42849  0.00000  0.14303
       7     H     0.43842  0.43842  0.00000  0.12317
       8     N     3.76640  3.76640  0.00000 -0.53280
       9     O     4.20627  4.20627  0.00000 -0.41254
      10     C     3.16602  3.16602  0.00000 -0.33204
      11     H     0.45079  0.45079  0.00000  0.09842
      12     H     0.43039  0.43039  0.00000  0.13923
      13     C     3.16677  3.16677  0.00000 -0.33355
      14     H     0.43782  0.43782  0.00000  0.12435
      15     H     0.44640  0.44640  0.00000  0.10720
      16     H     0.44326  0.44326  0.00000  0.11347
      17     H     0.43754  0.43754  0.00000  0.12492
      18     H     0.43983  0.43983  0.00000  0.12034
      19     H     0.44114  0.44114  0.00000  0.11772
      20     H     0.37547  0.37547  0.00000  0.24906
      21     H     0.36838  0.36838  0.00000  0.26325
      22     H     0.44471  0.44471  0.00000  0.11057
      23     H     0.43916  0.43916  0.00000  0.12169

   Total alpha = 36.00000, Total beta = 36.00000, Total charge =  0.00000

  Basis Set: MINIX
    Blend: MINIX
*** Psi4 exiting successfully. Buy a developer a beer!
