   * xtb version 6.5.0 (97a52f5) compiled by 'conda@d2599ee0d4f4' on 2022-05-15
          program call               : /home/liuchw/anaconda3/envs/xtbenv/bin/xtb --gfn 2 --chrg 1 --uhf 0 32_40_Index_0-opt-2-3-273_preQMOPTprefit_xyzformat.xyz --opt --input xtb-opt-2-3-273_constr.txt

   ID    Z sym.   atoms
    1    1 H      1, 4-6, 9-14
    2    6 C      2, 7, 8
    3    7 N      3
constraining angle 5 2 3 4 to  272.9553503°, actual value:  -87.0446497°
constraining angle 5 2 3 7 to  156.0798042°, actual value:  156.0798042°
constraining angle 10 7 3 4 to  300.9749253°, actual value:  -59.0250747°
constraining angle 10 7 3 2 to   58.0160722°, actual value:   58.0160722°
constraining angle 11 8 3 4 to   62.9569288°, actual value:   62.9569288°
constraining angle 11 8 3 2 to  306.0307671°, actual value:  -53.9692329°

          :  Hamiltonian                  GFN2-xTB          :
 * total energy  :   -14.0135749 Eh     change       -0.1778666E-10 Eh
 * total energy  :   -14.0162999 Eh     change       -0.2724959E-02 Eh
 * total energy  :   -14.0168301 Eh     change       -0.5302672E-03 Eh
 * total energy  :   -14.0168385 Eh     change       -0.8360632E-05 Eh
 * total energy  :   -14.0168398 Eh     change       -0.1303401E-05 Eh
 * total energy  :   -14.0168419 Eh     change       -0.2073004E-05 Eh
   *** GEOMETRY OPTIMIZATION CONVERGED AFTER 6 ITERATIONS ***

 final structure:
================
14
 xtb: 6.5.0 (97a52f5)
H            1.19102864818164        1.47566722113564        0.07016676130900
C            1.08852236379896        0.65096199301565       -0.63512371169882
N           -0.10881110613883       -0.14797092555359       -0.29043055867962
H           -0.41476664813761       -0.61627470748519       -1.15142682058758
H            1.98937782331194        0.04700498613661       -0.55500841388766
H            1.00840473381141        1.06260230664146       -1.63795068641700
C           -1.22328628082629        0.70379082272463        0.16068643269644
C            0.20604530587126       -1.19085551249070        0.70286274379664
H           -0.94025627846957        1.23375392692290        1.06861655452313
H           -1.48036068637719        1.42914727579193       -0.60936697975797
H            1.03369308990214       -1.80837873972656        0.36013387232721
H            0.49153486100794       -0.72150268135652        1.64381731856384
H           -2.10206732921025        0.09638700892405        0.37095512959033
H           -0.66046449672553       -1.82556098468034        0.87807638822205

          :  Hamiltonian                  GFN2-xTB          :
         :: total energy             -14.016841872215 Eh    ::
         :: gradient norm              0.000813475156 Eh/a0 ::
         :: HOMO-LUMO gap             11.243232751610 eV    ::
         :: SCC energy               -14.215228539685 Eh    ::
         :: -> dispersion             -0.005283818220 Eh    ::
         :: repulsion energy           0.198347812692 Eh    ::

    * Orbital Energies and Occupations

         #    Occupation            Energy/Eh            Energy/eV
      -------------------------------------------------------------
         1        2.0000           -0.8921983             -24.2780
         2        2.0000           -0.8455167             -23.0077
         3        2.0000           -0.8448598             -22.9898
         4        2.0000           -0.8117540             -22.0890
         5        2.0000           -0.7638677             -20.7859
         6        2.0000           -0.7409489             -20.1622
         7        2.0000           -0.7406410             -20.1539
         8        2.0000           -0.6834851             -18.5986
         9        2.0000           -0.6811776             -18.5358
        10        2.0000           -0.6662560             -18.1297
        11        2.0000           -0.6656789             -18.1140
        12        2.0000           -0.6600685             -17.9614
        13        2.0000           -0.6586761             -17.9235 (HOMO)
        14                         -0.2454949              -6.6803 (LUMO)
        15                         -0.1570697              -4.2741
        16                         -0.1547131              -4.2100
        17                         -0.1424573              -3.8765
        18                         -0.0561831              -1.5288
        19                         -0.0055099              -0.1499
        20                         -0.0011601              -0.0316
        21                          0.0099631               0.2711
        22                          0.0251675               0.6848
        23                          0.0319863               0.8704
        24                          0.0387215               1.0537
       ...                                ...                  ...
        26                          0.0677780               1.8443
      -------------------------------------------------------------
                  HL-Gap            0.4131812 Eh           11.2432 eV

     #   Z          covCN         q      C6AA      α(0)
     1   1 H        0.925     0.113     1.669     2.020
     2   6 C        3.698    -0.105    22.682     6.812
     3   7 N        3.577     0.081    19.837     6.615
     4   1 H        0.859     0.234     0.949     1.526
     5   1 H        0.925     0.113     1.669     2.020
     6   1 H        0.925     0.107     1.722     2.052
     7   6 C        3.699    -0.102    22.628     6.803
     8   6 C        3.700    -0.103    22.635     6.804
     9   1 H        0.925     0.112     1.676     2.024
    10   1 H        0.925     0.110     1.698     2.038
    11   1 H        0.925     0.108     1.710     2.045
    12   1 H        0.925     0.114     1.664     2.017
    13   1 H        0.925     0.109     1.705     2.042
    14   1 H        0.925     0.108     1.710     2.045

Wiberg/Mayer (AO) data.
largest (>0.10) Wiberg bond orders for each atom

     #   Z sym  total        # sym  WBO       # sym  WBO       # sym  WBO
 ---------------------------------------------------------------------------
     1   1 H    0.987 --     2 C    0.974
     2   6 C    3.911 --     6 H    0.977     1 H    0.974     5 H    0.972
                             3 N    0.954
     3   7 N    3.788 --     8 C    0.959     7 C    0.958     2 C    0.954
                             4 H    0.915
     4   1 H    0.945 --     3 N    0.915
     5   1 H    0.987 --     2 C    0.972
     6   1 H    0.989 --     2 C    0.977
     7   6 C    3.912 --    10 H    0.974    13 H    0.974     9 H    0.973
                             3 N    0.958
     8   6 C    3.913 --    14 H    0.974    12 H    0.974    11 H    0.974
                             3 N    0.959
     9   1 H    0.987 --     7 C    0.973
    10   1 H    0.988 --     7 C    0.974
    11   1 H    0.988 --     8 C    0.974
    12   1 H    0.987 --     8 C    0.974
    13   1 H    0.988 --     7 C    0.974
    14   1 H    0.988 --     8 C    0.974
 ---------------------------------------------------------------------------

molecular dipole:
                 x           y           z       tot (Debye)
 q only:       -0.092      -0.110      -0.245
   full:       -0.148      -0.192      -0.397       1.184

           -------------------------------------------------
          | TOTAL ENERGY              -14.016841872215 Eh   |
          | GRADIENT NORM               0.000813475156 Eh/α |
          | HOMO-LUMO GAP              11.243232751610 eV   |
           -------------------------------------------------

 * finished run on 2023/11/18 at 08:10:09.958
