                               Psi4 1.6 release

  ==> Input File <==

--------------------------------------------------------------------------
molecule {
1 1
 H    1.282544    0.551488   -1.677042
 C    1.155074    0.563552   -0.595355
 N   -0.007088   -0.267303   -0.207297
 H   -0.038412   -1.061304   -0.857260
 H    0.987170    1.598410   -0.301935
 H    2.068144    0.196151   -0.135213
 C   -1.276693    0.465552   -0.354778
 C    0.147539   -0.805300    1.156725
 H   -1.285295    1.328342    0.309174
 H   -1.400241    0.805179   -1.381718
 H    1.091320   -1.337946    1.253040
 H    0.139677    0.015453    1.873166
 H   -2.116540   -0.178713   -0.100074
 H   -0.668602   -1.484792    1.394574
}
memory 20GB
set_num_threads(5)
psi4_io.set_default_path("/scratch/liuchw/Psi4-32_40_Index_0-farH_in17")
set freeze_core True
E, wfn = energy('wb97x-d/6-311+G*',return_wfn=True)
oeprop(wfn,"WIBERG_LOWDIN_INDICES")
clean()
--------------------------------------------------------------------------

    Molecular point group: c1

    Geometry (in Angstrom), charge = 1, multiplicity = 1:

       Center              X                  Y                   Z               Mass
    ------------   -----------------  -----------------  -----------------  -----------------
         H            1.278016488705     0.561836726273    -1.676309135855     1.007825032230
         C            1.150546488705     0.573900726273    -0.594622135855    12.000000000000
         N           -0.011615511295    -0.256954273727    -0.206564135855    14.003074004430
         H           -0.042939511295    -1.050955273727    -0.856527135855     1.007825032230
         H            0.982642488705     1.608758726273    -0.301202135855     1.007825032230
         H            2.063616488705     0.206499726273    -0.134480135855     1.007825032230
         C           -1.281220511295     0.475900726273    -0.354045135855    12.000000000000
         C            0.143011488705    -0.794951273727     1.157457864145    12.000000000000
         H           -1.289822511295     1.338690726273     0.309906864145     1.007825032230
         H           -1.404768511295     0.815527726273    -1.380985135855     1.007825032230
         H            1.086792488705    -1.327597273727     1.253772864145     1.007825032230
         H            0.135149488705     0.025801726273     1.873898864145     1.007825032230
         H           -2.121067511295    -0.168364273727    -0.099341135855     1.007825032230
         H           -0.673129511295    -1.474443273727     1.395306864145     1.007825032230

  Charge       = 1
  Multiplicity = 1
  Basis Set: 6-311+G*
    Blend: 6-311+G*
  Basis Set: (6-311+G* AUX)
    Blend: HEAVY-AUG-CC-PVTZ-JKFIT

    Orbital Energies [Eh]
    ---------------------

    Doubly Occupied:

       1A    -14.758191     2A    -10.515944     3A    -10.515257
       4A    -10.515031     5A     -1.322882     6A     -1.039216
       7A     -1.038432     8A     -0.963257     9A     -0.853539
      10A     -0.793602    11A     -0.792129    12A     -0.705057
      13A     -0.703840    14A     -0.676147    15A     -0.674429
      16A     -0.671965    17A     -0.668521

  @DF-RKS Final Energy:  -174.82827323834690

   => Energetics <=

    Nuclear Repulsion Energy =            147.6692140084998073
    One-Electron Energy =                -518.3293219920966521
    Two-Electron Energy =                 213.9797415448260836
    DFT Exchange-Correlation Energy =     -18.1409891512615431
    Empirical Dispersion Energy =          -0.0069176483145803
    VV10 Nonlocal Energy =                  0.0000000000000000
    Total Energy =                       -174.8282732383468954
 Dipole X            :         -0.0252361            0.0136176           -0.0116185
 Dipole Y            :         -0.7724559            0.5030005           -0.2694554
 Dipole Z            :         -0.5913299            0.3606263           -0.2307035
 Magnitude           :                                                    0.3549159
*** Psi4 exiting successfully. Buy a developer a beer!
