                               Psi4 1.6 release

  ==> Input File <==

--------------------------------------------------------------------------
molecule {
1 1
 H    2.036341    0.094341   -0.343921
 C    1.118327    0.610414   -0.620112
 N   -0.058756   -0.210685   -0.257231
 H   -0.224652   -0.857734   -1.036703
 H    1.153187    0.779870   -1.694267
 H    1.089840    1.563958   -0.097808
 C   -1.272661    0.611222   -0.107884
 C    0.196226   -1.016072    0.951083
 H   -1.138164    1.325702    0.702464
 H   -1.477532    1.153038   -1.029641
 H    1.097805   -1.612955    0.830272
 H    0.332192   -0.354571    1.806061
 H   -2.130412   -0.018859    0.121375
 H   -0.643145   -1.678897    1.152319
}
memory 20GB
set_num_threads(5)
psi4_io.set_default_path("/scratch/liuchw/Psi4-32_40_Index_0-farH_in17")
set freeze_core True
E, wfn = energy('wb97x-d/6-311+G*',return_wfn=True)
oeprop(wfn,"WIBERG_LOWDIN_INDICES")
clean()
--------------------------------------------------------------------------

    Molecular point group: c1

    Geometry (in Angstrom), charge = 1, multiplicity = 1:

       Center              X                  Y                   Z               Mass
    ------------   -----------------  -----------------  -----------------  -----------------
         H            2.040066843948     0.095780622415    -0.335405537164     1.007825032230
         C            1.122052843948     0.611853622415    -0.611596537164    12.000000000000
         N           -0.055030156052    -0.209245377585    -0.248715537164    14.003074004430
         H           -0.220926156052    -0.856294377585    -1.028187537164     1.007825032230
         H            1.156912843948     0.781309622415    -1.685751537164     1.007825032230
         H            1.093565843948     1.565397622415    -0.089292537164     1.007825032230
         C           -1.268935156052     0.612661622415    -0.099368537164    12.000000000000
         C            0.199951843948    -1.014632377585     0.959598462836    12.000000000000
         H           -1.134438156052     1.327141622415     0.710979462836     1.007825032230
         H           -1.473806156052     1.154477622415    -1.021125537164     1.007825032230
         H            1.101530843948    -1.611515377585     0.838787462836     1.007825032230
         H            0.335917843948    -0.353131377585     1.814576462836     1.007825032230
         H           -2.126686156052    -0.017419377585     0.129890462836     1.007825032230
         H           -0.639419156052    -1.677457377585     1.160834462836     1.007825032230

  Charge       = 1
  Multiplicity = 1
  Basis Set: 6-311+G*
    Blend: 6-311+G*
  Basis Set: (6-311+G* AUX)
    Blend: HEAVY-AUG-CC-PVTZ-JKFIT

    Orbital Energies [Eh]
    ---------------------

    Doubly Occupied:

       1A    -14.758184     2A    -10.515723     3A    -10.515326
       4A    -10.515018     5A     -1.322855     6A     -1.039264
       7A     -1.038280     8A     -0.963251     9A     -0.853759
      10A     -0.793167    11A     -0.791874    12A     -0.705804
      13A     -0.703857    14A     -0.676058    15A     -0.674569
      16A     -0.673349    17A     -0.666442

  @DF-RKS Final Energy:  -174.82821705005091

   => Energetics <=

    Nuclear Repulsion Energy =            147.6614501538215052
    One-Electron Energy =                -518.3149938957462837
    Two-Electron Energy =                 213.9732544230982683
    DFT Exchange-Correlation Energy =     -18.1410143543996547
    Empirical Dispersion Energy =          -0.0069133768247501
    VV10 Nonlocal Energy =                  0.0000000000000000
    Total Energy =                       -174.8282170500508812
 Dipole X            :         -0.1767700            0.1245793           -0.0521907
 Dipole Y            :         -0.6074417            0.3833664           -0.2240752
 Dipole Z            :         -0.7366340            0.4650563           -0.2715777
 Magnitude           :                                                    0.3559326
*** Psi4 exiting successfully. Buy a developer a beer!
