                               Psi4 1.6 release

  ==> Input File <==

--------------------------------------------------------------------------
molecule {
1 1
 H    1.724289    0.799239    0.264981
 C    1.112608    0.627996   -0.617584
 N   -0.083184   -0.175605   -0.269675
 H   -0.322173   -0.735514   -1.096205
 H    1.702744    0.131271   -1.384372
 H    0.811799    1.595232   -1.017399
 C   -1.253810    0.669764    0.027127
 C    0.204136   -1.117191    0.827032
 H   -1.041364    1.299565    0.890375
 H   -1.488349    1.307245   -0.822905
 H    1.068825   -1.730332    0.579428
 H    0.412895   -0.563618    1.741333
 H   -2.120814    0.051072    0.251607
 H   -0.649007   -1.770349    1.002265
}
memory 20GB
set_num_threads(5)
psi4_io.set_default_path("/scratch/liuchw/Psi4-32_40_Index_0-farH_in17")
set freeze_core True
E, wfn = energy('wb97x-d/6-311+G*',return_wfn=True)
oeprop(wfn,"WIBERG_LOWDIN_INDICES")
clean()
--------------------------------------------------------------------------

    Molecular point group: c1

    Geometry (in Angstrom), charge = 1, multiplicity = 1:

       Center              X                  Y                   Z               Mass
    ------------   -----------------  -----------------  -----------------  -----------------
         H            1.729448760477     0.797663926149     0.273720316331     1.007825032230
         C            1.117767760477     0.626420926149    -0.608844683669    12.000000000000
         N           -0.078024239523    -0.177180073851    -0.260935683669    14.003074004430
         H           -0.317013239523    -0.737089073851    -1.087465683669     1.007825032230
         H            1.707903760477     0.129695926149    -1.375632683669     1.007825032230
         H            0.816958760477     1.593656926149    -1.008659683669     1.007825032230
         C           -1.248650239523     0.668188926149     0.035866316331    12.000000000000
         C            0.209295760477    -1.118766073851     0.835771316331    12.000000000000
         H           -1.036204239523     1.297989926149     0.899114316331     1.007825032230
         H           -1.483189239523     1.305669926149    -0.814165683669     1.007825032230
         H            1.073984760477    -1.731907073851     0.588167316331     1.007825032230
         H            0.418054760477    -0.565193073851     1.750072316331     1.007825032230
         H           -2.115654239523     0.049496926149     0.260346316331     1.007825032230
         H           -0.643847239523    -1.771924073851     1.011004316331     1.007825032230

  Charge       = 1
  Multiplicity = 1
  Basis Set: 6-311+G*
    Blend: 6-311+G*
  Basis Set: (6-311+G* AUX)
    Blend: HEAVY-AUG-CC-PVTZ-JKFIT

    Orbital Energies [Eh]
    ---------------------

    Doubly Occupied:

       1A    -14.757877     2A    -10.515622     3A    -10.515438
       4A    -10.514849     5A     -1.322377     6A     -1.039437
       7A     -1.038095     8A     -0.962579     9A     -0.853443
      10A     -0.792839    11A     -0.791655    12A     -0.706934
      13A     -0.704003    14A     -0.675362    15A     -0.674178
      16A     -0.672963    17A     -0.665981

  @DF-RKS Final Energy:  -174.82764230507223

   => Energetics <=

    Nuclear Repulsion Energy =            147.5734286687849703
    One-Electron Energy =                -518.1443570634456819
    Two-Electron Energy =                 213.8907929162728010
    DFT Exchange-Correlation Energy =     -18.1405963484028803
    Empirical Dispersion Energy =          -0.0069104782814177
    VV10 Nonlocal Energy =                  0.0000000000000000
    Total Energy =                       -174.8276423050722030
 Dipole X            :         -0.2213522            0.1412620           -0.0800903
 Dipole Y            :         -0.5339686            0.3455599           -0.1884087
 Dipole Z            :         -0.7576128            0.4662126           -0.2914002
 Magnitude           :                                                    0.3561269
*** Psi4 exiting successfully. Buy a developer a beer!
