                               Psi4 1.6 release

  ==> Input File <==

--------------------------------------------------------------------------
molecule {
1 1
 H    1.448679    1.161610    0.267525
 C    1.094074    0.638535   -0.619272
 N   -0.097475   -0.162413   -0.282636
 H   -0.367186   -0.673960   -1.131794
 H    1.890042   -0.002639   -0.992940
 H    0.853215    1.373746   -1.385144
 C   -1.238860    0.690975    0.091712
 C    0.210011   -1.154596    0.762447
 H   -0.989178    1.270159    0.979684
 H   -1.481078    1.377877   -0.716884
 H    1.060847   -1.765533    0.467286
 H    0.455692   -0.642361    1.691733
 H   -2.114004    0.080760    0.307144
 H   -0.646183   -1.803388    0.937146
}
memory 20GB
set_num_threads(5)
psi4_io.set_default_path("/scratch/liuchw/Psi4-32_40_Index_0-farH_in17")
set freeze_core True
E, wfn = energy('wb97x-d/6-311+G*',return_wfn=True)
oeprop(wfn,"WIBERG_LOWDIN_INDICES")
clean()
--------------------------------------------------------------------------

    Molecular point group: c1

    Geometry (in Angstrom), charge = 1, multiplicity = 1:

       Center              X                  Y                   Z               Mass
    ------------   -----------------  -----------------  -----------------  -----------------
         H            1.456510656015     1.158216232025     0.279376551675     1.007825032230
         C            1.101905656015     0.635141232025    -0.607420448325    12.000000000000
         N           -0.089643343985    -0.165806767975    -0.270784448325    14.003074004430
         H           -0.359354343985    -0.677353767975    -1.119942448325     1.007825032230
         H            1.897873656015    -0.006032767975    -0.981088448325     1.007825032230
         H            0.861046656015     1.370352232025    -1.373292448325     1.007825032230
         C           -1.231028343985     0.687581232025     0.103563551675    12.000000000000
         C            0.217842656015    -1.157989767975     0.774298551675    12.000000000000
         H           -0.981346343985     1.266765232025     0.991535551675     1.007825032230
         H           -1.473246343985     1.374483232025    -0.705032448325     1.007825032230
         H            1.068678656015    -1.768926767975     0.479137551675     1.007825032230
         H            0.463523656015    -0.645754767975     1.703584551675     1.007825032230
         H           -2.106172343985     0.077366232025     0.318995551675     1.007825032230
         H           -0.638351343985    -1.806781767975     0.948997551675     1.007825032230

  Charge       = 1
  Multiplicity = 1
  Basis Set: 6-311+G*
    Blend: 6-311+G*
  Basis Set: (6-311+G* AUX)
    Blend: HEAVY-AUG-CC-PVTZ-JKFIT

    Orbital Energies [Eh]
    ---------------------

    Doubly Occupied:

       1A    -14.758590     2A    -10.515658     3A    -10.515578
       4A    -10.515565     5A     -1.324100     6A     -1.039898
       7A     -1.038743     8A     -0.963207     9A     -0.854134
      10A     -0.793640    11A     -0.793382    12A     -0.702640
      13A     -0.701909    14A     -0.676697    15A     -0.675782
      16A     -0.674850    17A     -0.669502

  @DF-RKS Final Energy:  -174.83053144676771

   => Energetics <=

    Nuclear Repulsion Energy =            147.8097640995470385
    One-Electron Energy =                -518.6015852055199957
    Two-Electron Energy =                 214.1098193612834280
    DFT Exchange-Correlation Energy =     -18.1415329049993623
    Empirical Dispersion Energy =          -0.0069967970787904
    VV10 Nonlocal Energy =                  0.0000000000000000
    Total Energy =                       -174.8305314467677078
 Dipole X            :         -0.2701261            0.1775945           -0.0925316
 Dipole Y            :         -0.4964871            0.3214086           -0.1750785
 Dipole Z            :         -0.8009026            0.5091495           -0.2917531
 Magnitude           :                                                    0.3526109
*** Psi4 exiting successfully. Buy a developer a beer!
