   * xtb version 6.5.0 (97a52f5) compiled by 'conda@d2599ee0d4f4' on 2022-05-15
          program call               : /home/liuchw/anaconda3/envs/xtbenv/bin/xtb --gfn 2 --chrg 1 --uhf 0 32_40_Index_0-opt-2-3-123_preQMOPTprefit_xyzformat.xyz --opt --input xtb-opt-2-3-123_constr.txt

   ID    Z sym.   atoms
    1    1 H      1, 4-6, 9-14
    2    6 C      2, 7, 8
    3    7 N      3
constraining angle 5 2 3 4 to  122.9241463°, actual value:  122.9241463°
constraining angle 5 2 3 7 to    6.0801306°, actual value:    6.0801306°
constraining angle 10 7 3 4 to  300.9530120°, actual value:  -59.0469880°
constraining angle 10 7 3 2 to   58.0440455°, actual value:   58.0440455°
constraining angle 11 8 3 4 to   62.9304964°, actual value:   62.9304964°
constraining angle 11 8 3 2 to  306.0627538°, actual value:  -53.9372462°

          :  Hamiltonian                  GFN2-xTB          :
 * total energy  :   -14.0110135 Eh     change       -0.3582912E-10 Eh
 * total energy  :   -14.0136867 Eh     change       -0.2673162E-02 Eh
 * total energy  :   -14.0141320 Eh     change       -0.4453236E-03 Eh
 * total energy  :   -14.0140940 Eh     change        0.3796442E-04 Eh
 * total energy  :   -14.0141631 Eh     change       -0.6901832E-04 Eh
 * total energy  :   -14.0141629 Eh     change        0.1491521E-06 Eh
 * total energy  :   -14.0141642 Eh     change       -0.1240284E-05 Eh
   *** GEOMETRY OPTIMIZATION CONVERGED AFTER 7 ITERATIONS ***

 final structure:
================
14
 xtb: 6.5.0 (97a52f5)
H            1.60246710352307        0.20856702430055       -1.52893536456184
C            1.15306546424209        0.57776812920297       -0.61039376231501
N           -0.02160068584487       -0.24874021665386       -0.21930725325048
H           -0.09238193554884       -1.01174449219715       -0.90119279300251
H            0.85353479225243        1.61125860506009       -0.77039228936101
H            1.90849826748514        0.56303891259360        0.17150058993255
C           -1.28423132972945        0.50860756975434       -0.29146684727403
C            0.15996081730472       -0.86562434041929        1.10768706472810
H           -1.25501834285766        1.34106969681921        0.41003526040354
H           -1.43715744918559        0.89407949726142       -1.29784197078068
H            1.09216033462621       -1.42621279291691        1.14098875154540
H            0.18874905823850       -0.08845397545193        1.87047782239662
H           -2.12531300590031       -0.13345991015205       -0.03481317858291
H           -0.66413506860543       -1.54138169720098        1.32966198012225

          :  Hamiltonian                  GFN2-xTB          :
         :: total energy             -14.014164155806 Eh    ::
         :: gradient norm              0.000149599235 Eh/a0 ::
         :: HOMO-LUMO gap             11.068755641390 eV    ::
         :: SCC energy               -14.212266012486 Eh    ::
         :: -> dispersion             -0.005272236662 Eh    ::
         :: repulsion energy           0.198082915126 Eh    ::

    * Orbital Energies and Occupations

         #    Occupation            Energy/Eh            Energy/eV
      -------------------------------------------------------------
         1        2.0000           -0.8911596             -24.2497
         2        2.0000           -0.8450417             -22.9948
         3        2.0000           -0.8439265             -22.9644
         4        2.0000           -0.8107211             -22.0608
         5        2.0000           -0.7638240             -20.7847
         6        2.0000           -0.7405692             -20.1519
         7        2.0000           -0.7399210             -20.1343
         8        2.0000           -0.6846518             -18.6303
         9        2.0000           -0.6832119             -18.5911
        10        2.0000           -0.6660445             -18.1240
        11        2.0000           -0.6650784             -18.0977
        12        2.0000           -0.6580840             -17.9074
        13        2.0000           -0.6560734             -17.8527 (HOMO)
        14                         -0.2493041              -6.7839 (LUMO)
        15                         -0.1615612              -4.3963
        16                         -0.1572127              -4.2780
        17                         -0.1455403              -3.9604
        18                         -0.0541079              -1.4723
        19                         -0.0065235              -0.1775
        20                          0.0001140               0.0031
        21                          0.0024522               0.0667
        22                          0.0258101               0.7023
        23                          0.0310207               0.8441
        24                          0.0347094               0.9445
       ...                                ...                  ...
        26                          0.0775425               2.1100
      -------------------------------------------------------------
                  HL-Gap            0.4067693 Eh           11.0688 eV

     #   Z          covCN         q      C6AA      α(0)
     1   1 H        0.925     0.105     1.738     2.062
     2   6 C        3.694    -0.107    22.733     6.821
     3   7 N        3.576     0.079    19.868     6.620
     4   1 H        0.859     0.234     0.948     1.526
     5   1 H        0.925     0.116     1.646     2.006
     6   1 H        0.925     0.116     1.644     2.005
     7   6 C        3.698    -0.102    22.629     6.804
     8   6 C        3.698    -0.102    22.630     6.804
     9   1 H        0.925     0.113     1.671     2.022
    10   1 H        0.925     0.109     1.704     2.041
    11   1 H        0.925     0.109     1.703     2.041
    12   1 H        0.925     0.113     1.668     2.020
    13   1 H        0.925     0.109     1.709     2.044
    14   1 H        0.925     0.108     1.714     2.048

Wiberg/Mayer (AO) data.
largest (>0.10) Wiberg bond orders for each atom

     #   Z sym  total        # sym  WBO       # sym  WBO       # sym  WBO
 ---------------------------------------------------------------------------
     1   1 H    0.989 --     2 C    0.980
     2   6 C    3.908 --     1 H    0.980     5 H    0.974     6 H    0.973
                             3 N    0.948
     3   7 N    3.786 --     7 C    0.960     8 C    0.960     2 C    0.948
                             4 H    0.917
     4   1 H    0.945 --     3 N    0.917
     5   1 H    0.987 --     2 C    0.974
     6   1 H    0.986 --     2 C    0.973
     7   6 C    3.913 --    10 H    0.975     9 H    0.974    13 H    0.974
                             3 N    0.960
     8   6 C    3.913 --    11 H    0.974    12 H    0.974    14 H    0.974
                             3 N    0.960
     9   1 H    0.987 --     7 C    0.974
    10   1 H    0.988 --     7 C    0.975
    11   1 H    0.988 --     8 C    0.974
    12   1 H    0.987 --     8 C    0.974
    13   1 H    0.988 --     7 C    0.974
    14   1 H    0.988 --     8 C    0.974
 ---------------------------------------------------------------------------

molecular dipole:
                 x           y           z       tot (Debye)
 q only:       -0.005      -0.198      -0.181
   full:       -0.019      -0.337      -0.304       1.154

           -------------------------------------------------
          | TOTAL ENERGY              -14.014164155806 Eh   |
          | GRADIENT NORM               0.000149599235 Eh/α |
          | HOMO-LUMO GAP              11.068755641390 eV   |
           -------------------------------------------------

 * finished run on 2023/11/18 at 08:07:59.150
