   * xtb version 6.5.0 (97a52f5) compiled by 'conda@d2599ee0d4f4' on 2022-05-15
          program call               : /home/liuchw/anaconda3/envs/xtbenv/bin/xtb --gfn 2 --chrg 1 --uhf 0 32_40_Index_0-opt-2-3-243_preQMOPTprefit_xyzformat.xyz --opt --input xtb-opt-2-3-243_constr.txt

   ID    Z sym.   atoms
    1    1 H      1, 4-6, 9-14
    2    6 C      2, 7, 8
    3    7 N      3
constraining angle 5 2 3 4 to  242.9230419°, actual value: -117.0769581°
constraining angle 5 2 3 7 to  126.0792401°, actual value:  126.0792401°
constraining angle 10 7 3 4 to  300.9525874°, actual value:  -59.0474126°
constraining angle 10 7 3 2 to   58.0470965°, actual value:   58.0470965°
constraining angle 11 8 3 4 to   62.9297724°, actual value:   62.9297724°
constraining angle 11 8 3 2 to  306.0636389°, actual value:  -53.9363611°

          :  Hamiltonian                  GFN2-xTB          :
 * total energy  :   -14.0110313 Eh     change       -0.3321965E-10 Eh
 * total energy  :   -14.0136911 Eh     change       -0.2659810E-02 Eh
 * total energy  :   -14.0141610 Eh     change       -0.4699019E-03 Eh
 * total energy  :   -14.0141689 Eh     change       -0.7885642E-05 Eh
 * total energy  :   -14.0141717 Eh     change       -0.2769479E-05 Eh
 * total energy  :   -14.0141733 Eh     change       -0.1691580E-05 Eh
   *** GEOMETRY OPTIMIZATION CONVERGED AFTER 6 ITERATIONS ***

 final structure:
================
14
 xtb: 6.5.0 (97a52f5)
H            0.83134484521539        1.50350625711457       -0.96823710643597
C            1.18060982579967        0.54629791074106       -0.58675022525416
N            0.02752938117937       -0.29278514188217       -0.16004430502888
H            0.09172441942729       -1.17658383549606       -0.67677040512061
H            1.84028346431746        0.74543943484855        0.25449366258653
H            1.75489926157151        0.05589713993925       -1.36856421866261
C           -1.26677013089720        0.31737085426563       -0.51426414507717
C            0.09089612526895       -0.62203449326496        1.27596439364876
H           -1.37949590495216        1.26893001469864        0.00325087055619
H           -1.32441922696101        0.48505988208314       -1.58820485225007
H            1.04883064973084       -1.07796727372541        1.51856307958099
H           -0.02546143446641        0.28740328428750        1.86428891705634
H           -2.08604664670737       -0.33729379715304       -0.22136634810345
H           -0.70532661852634       -1.31446723645670        1.54364768250412

          :  Hamiltonian                  GFN2-xTB          :
         :: total energy             -14.014173343341 Eh    ::
         :: gradient norm              0.000895273650 Eh/a0 ::
         :: HOMO-LUMO gap             11.071757866311 eV    ::
         :: SCC energy               -14.212250638385 Eh    ::
         :: -> dispersion             -0.005272425016 Eh    ::
         :: repulsion energy           0.198057395886 Eh    ::

    * Orbital Energies and Occupations

         #    Occupation            Energy/Eh            Energy/eV
      -------------------------------------------------------------
         1        2.0000           -0.8911609             -24.2497
         2        2.0000           -0.8450307             -22.9945
         3        2.0000           -0.8439177             -22.9642
         4        2.0000           -0.8107441             -22.0615
         5        2.0000           -0.7637997             -20.7840
         6        2.0000           -0.7405746             -20.1521
         7        2.0000           -0.7399132             -20.1341
         8        2.0000           -0.6847293             -18.6324
         9        2.0000           -0.6831391             -18.5892
        10        2.0000           -0.6660920             -18.1253
        11        2.0000           -0.6650418             -18.0967
        12        2.0000           -0.6579403             -17.9035
        13        2.0000           -0.6562061             -17.8563 (HOMO)
        14                         -0.2493265              -6.7845 (LUMO)
        15                         -0.1614540              -4.3934
        16                         -0.1573481              -4.2817
        17                         -0.1454335              -3.9574
        18                         -0.0540626              -1.4711
        19                         -0.0067241              -0.1830
        20                          0.0003317               0.0090
        21                          0.0026833               0.0730
        22                          0.0255099               0.6942
        23                          0.0309541               0.8423
        24                          0.0344480               0.9374
       ...                                ...                  ...
        26                          0.0780987               2.1252
      -------------------------------------------------------------
                  HL-Gap            0.4068796 Eh           11.0718 eV

     #   Z          covCN         q      C6AA      α(0)
     1   1 H        0.925     0.116     1.647     2.007
     2   6 C        3.694    -0.107    22.733     6.821
     3   7 N        3.576     0.079    19.868     6.620
     4   1 H        0.859     0.234     0.948     1.525
     5   1 H        0.925     0.116     1.645     2.006
     6   1 H        0.925     0.105     1.736     2.060
     7   6 C        3.698    -0.102    22.629     6.804
     8   6 C        3.698    -0.102    22.630     6.804
     9   1 H        0.925     0.113     1.672     2.022
    10   1 H        0.925     0.109     1.704     2.041
    11   1 H        0.925     0.109     1.703     2.041
    12   1 H        0.925     0.113     1.668     2.020
    13   1 H        0.925     0.109     1.709     2.044
    14   1 H        0.925     0.108     1.714     2.047

Wiberg/Mayer (AO) data.
largest (>0.10) Wiberg bond orders for each atom

     #   Z sym  total        # sym  WBO       # sym  WBO       # sym  WBO
 ---------------------------------------------------------------------------
     1   1 H    0.987 --     2 C    0.974
     2   6 C    3.908 --     6 H    0.980     1 H    0.974     5 H    0.973
                             3 N    0.948
     3   7 N    3.786 --     7 C    0.960     8 C    0.960     2 C    0.948
                             4 H    0.917
     4   1 H    0.945 --     3 N    0.917
     5   1 H    0.987 --     2 C    0.973
     6   1 H    0.989 --     2 C    0.980
     7   6 C    3.913 --    10 H    0.975     9 H    0.974    13 H    0.974
                             3 N    0.960
     8   6 C    3.913 --    11 H    0.974    12 H    0.974    14 H    0.974
                             3 N    0.960
     9   1 H    0.987 --     7 C    0.974
    10   1 H    0.988 --     7 C    0.975
    11   1 H    0.988 --     8 C    0.974
    12   1 H    0.987 --     8 C    0.974
    13   1 H    0.988 --     7 C    0.974
    14   1 H    0.988 --     8 C    0.974
 ---------------------------------------------------------------------------

molecular dipole:
                 x           y           z       tot (Debye)
 q only:        0.040      -0.239      -0.125
   full:        0.050      -0.399      -0.219       1.163

           -------------------------------------------------
          | TOTAL ENERGY              -14.014173343341 Eh   |
          | GRADIENT NORM               0.000895273650 Eh/α |
          | HOMO-LUMO GAP              11.071757866311 eV   |
           -------------------------------------------------

 * finished run on 2023/11/18 at 08:08:57.669
