                               Psi4 1.6 release

  ==> Input File <==

--------------------------------------------------------------------------
molecule {
1 1
 H    1.191029    1.475667    0.070167
 C    1.088522    0.650962   -0.635124
 N   -0.108811   -0.147971   -0.290431
 H   -0.414767   -0.616275   -1.151427
 H    1.989378    0.047005   -0.555008
 H    1.008405    1.062602   -1.637951
 C   -1.223286    0.703791    0.160686
 C    0.206045   -1.190856    0.702863
 H   -0.940256    1.233754    1.068617
 H   -1.480361    1.429147   -0.609367
 H    1.033693   -1.808379    0.360134
 H    0.491535   -0.721503    1.643817
 H   -2.102067    0.096387    0.370955
 H   -0.660464   -1.825561    0.878076
}
memory 20GB
set_num_threads(5)
psi4_io.set_default_path("/scratch/liuchw/Psi4-32_40_Index_0-farH_in17")
set freeze_core True
E, wfn = energy('wb97x-d/6-311+G*',return_wfn=True)
oeprop(wfn,"WIBERG_LOWDIN_INDICES")
clean()
--------------------------------------------------------------------------

    Molecular point group: c1

    Geometry (in Angstrom), charge = 1, multiplicity = 1:

       Center              X                  Y                   Z               Mass
    ------------   -----------------  -----------------  -----------------  -----------------
         H            1.200204610055     1.471165157608     0.084886820681     1.007825032230
         C            1.097697610055     0.646460157608    -0.620404179319    12.000000000000
         N           -0.099635389945    -0.152472842392    -0.275711179319    14.003074004430
         H           -0.405591389945    -0.620776842392    -1.136707179319     1.007825032230
         H            1.998553610055     0.042503157608    -0.540288179319     1.007825032230
         H            1.017580610055     1.058100157608    -1.623231179319     1.007825032230
         C           -1.214110389945     0.699289157608     0.175405820681    12.000000000000
         C            0.215220610055    -1.195357842392     0.717582820681    12.000000000000
         H           -0.931080389945     1.229252157608     1.083336820681     1.007825032230
         H           -1.471185389945     1.424645157608    -0.594647179319     1.007825032230
         H            1.042868610055    -1.812880842392     0.374853820681     1.007825032230
         H            0.500710610055    -0.726004842392     1.658536820681     1.007825032230
         H           -2.092891389945     0.091885157608     0.385674820681     1.007825032230
         H           -0.651288389945    -1.830062842392     0.892795820681     1.007825032230

  Charge       = 1
  Multiplicity = 1
  Basis Set: 6-311+G*
    Blend: 6-311+G*
  Basis Set: (6-311+G* AUX)
    Blend: HEAVY-AUG-CC-PVTZ-JKFIT

    Orbital Energies [Eh]
    ---------------------

    Doubly Occupied:

       1A    -14.758220     2A    -10.515819     3A    -10.515480
       4A    -10.515011     5A     -1.322928     6A     -1.039253
       7A     -1.038329     8A     -0.963572     9A     -0.853274
      10A     -0.793383    11A     -0.792285    12A     -0.705673
      13A     -0.703542    14A     -0.676248    15A     -0.674162
      16A     -0.672989    17A     -0.667597

  @DF-RKS Final Energy:  -174.82826906612328

   => Energetics <=

    Nuclear Repulsion Energy =            147.6842315764288571
    One-Electron Energy =                -518.3587135543064051
    Two-Electron Energy =                 213.9940902249745420
    DFT Exchange-Correlation Energy =     -18.1409544850821050
    Empirical Dispersion Energy =          -0.0069228281381581
    VV10 Nonlocal Energy =                  0.0000000000000000
    Total Energy =                       -174.8282690661233119
 Dipole X            :         -0.2987251            0.1951716           -0.1035535
 Dipole Y            :         -0.4646762            0.3077693           -0.1569069
 Dipole Z            :         -0.8429658            0.5494185           -0.2935473
 Magnitude           :                                                    0.3485873
*** Psi4 exiting successfully. Buy a developer a beer!
