   * xtb version 6.5.0 (97a52f5) compiled by 'conda@d2599ee0d4f4' on 2022-05-15
          program call               : /home/liuchw/anaconda3/envs/xtbenv/bin/xtb --gfn 2 --chrg 1 --uhf 0 32_40_Index_0-opt-2-3-033_preQMOPTprefit_xyzformat.xyz --opt --input xtb-opt-2-3-033_constr.txt

   ID    Z sym.   atoms
    1    1 H      1, 4-6, 9-14
    2    6 C      2, 7, 8
    3    7 N      3
constraining angle 5 2 3 4 to   32.9557367°, actual value:   32.9557367°
constraining angle 5 2 3 7 to  276.0796099°, actual value:  -83.9203901°
constraining angle 10 7 3 4 to  300.9748930°, actual value:  -59.0251070°
constraining angle 10 7 3 2 to   58.0180519°, actual value:   58.0180519°
constraining angle 11 8 3 4 to   62.9586189°, actual value:   62.9586189°
constraining angle 11 8 3 2 to  306.0269327°, actual value:  -53.9730673°

          :  Hamiltonian                  GFN2-xTB          :
 * total energy  :   -14.0136435 Eh     change       -0.2042810E-12 Eh
 * total energy  :   -14.0162896 Eh     change       -0.2646042E-02 Eh
 * total energy  :   -14.0167671 Eh     change       -0.4774984E-03 Eh
 * total energy  :   -14.0167379 Eh     change        0.2916642E-04 Eh
 * total energy  :   -14.0167923 Eh     change       -0.5439752E-04 Eh
 * total energy  :   -14.0167923 Eh     change        0.5785386E-08 Eh
 * total energy  :   -14.0167928 Eh     change       -0.4608196E-06 Eh
   *** GEOMETRY OPTIMIZATION CONVERGED AFTER 7 ITERATIONS ***

 final structure:
================
14
 xtb: 6.5.0 (97a52f5)
H            2.03634140950819        0.09434114472854       -0.34392052688998
C            1.11832657444476        0.61041423750934       -0.62011163294169
N           -0.05875638634924       -0.21068460033758       -0.25723051064197
H           -0.22465204365052       -0.85773356500748       -1.03670303791074
H            1.15318706363662        0.77986960013817       -1.69426717500889
H            1.08983957303956        1.56395753271369       -0.09780776899276
C           -1.27266058692266        0.61122187480077       -0.10788443321940
C            0.19622588552243       -1.01607222445530        0.95108323834500
H           -1.13816433674158        1.32570218019357        0.70246376213276
H           -1.47753189328388        1.15303810050384       -1.02964081600781
H            1.09780523682481       -1.61295487822166        0.83027229661975
H            0.33219220953900       -0.35457106286397        1.80606094288142
H           -2.13041155820675       -0.01885880334740        0.12137467034703
H           -0.64314514736075       -1.67889653635453        1.15231900128728

          :  Hamiltonian                  GFN2-xTB          :
         :: total energy             -14.016792769871 Eh    ::
         :: gradient norm              0.000221259642 Eh/a0 ::
         :: HOMO-LUMO gap             11.246799128782 eV    ::
         :: SCC energy               -14.215230240480 Eh    ::
         :: -> dispersion             -0.005282315377 Eh    ::
         :: repulsion energy           0.198395323027 Eh    ::

    * Orbital Energies and Occupations

         #    Occupation            Energy/Eh            Energy/eV
      -------------------------------------------------------------
         1        2.0000           -0.8921530             -24.2767
         2        2.0000           -0.8455131             -23.0076
         3        2.0000           -0.8448748             -22.9902
         4        2.0000           -0.8116368             -22.0858
         5        2.0000           -0.7640215             -20.7901
         6        2.0000           -0.7409033             -20.1610
         7        2.0000           -0.7404923             -20.1498
         8        2.0000           -0.6830559             -18.5869
         9        2.0000           -0.6815440             -18.5458
        10        2.0000           -0.6664977             -18.1363
        11        2.0000           -0.6654000             -18.1065
        12        2.0000           -0.6599414             -17.9579
        13        2.0000           -0.6586828             -17.9237 (HOMO)
        14                         -0.2453705              -6.6769 (LUMO)
        15                         -0.1572186              -4.2781
        16                         -0.1551973              -4.2231
        17                         -0.1425474              -3.8789
        18                         -0.0558767              -1.5205
        19                         -0.0053860              -0.1466
        20                         -0.0017167              -0.0467
        21                          0.0061249               0.1667
        22                          0.0276344               0.7520
        23                          0.0328361               0.8935
        24                          0.0416591               1.1336
       ...                                ...                  ...
        26                          0.0646596               1.7595
      -------------------------------------------------------------
                  HL-Gap            0.4133123 Eh           11.2468 eV

     #   Z          covCN         q      C6AA      α(0)
     1   1 H        0.925     0.112     1.680     2.027
     2   6 C        3.698    -0.105    22.678     6.811
     3   7 N        3.577     0.081    19.838     6.615
     4   1 H        0.859     0.234     0.949     1.526
     5   1 H        0.925     0.106     1.731     2.057
     6   1 H        0.925     0.115     1.651     2.009
     7   6 C        3.699    -0.102    22.626     6.803
     8   6 C        3.700    -0.103    22.636     6.804
     9   1 H        0.925     0.113     1.675     2.024
    10   1 H        0.925     0.110     1.698     2.038
    11   1 H        0.925     0.108     1.711     2.046
    12   1 H        0.925     0.114     1.663     2.016
    13   1 H        0.925     0.109     1.706     2.043
    14   1 H        0.925     0.108     1.710     2.045

Wiberg/Mayer (AO) data.
largest (>0.10) Wiberg bond orders for each atom

     #   Z sym  total        # sym  WBO       # sym  WBO       # sym  WBO
 ---------------------------------------------------------------------------
     1   1 H    0.987 --     2 C    0.972
     2   6 C    3.911 --     5 H    0.977     6 H    0.974     1 H    0.972
                             3 N    0.953
     3   7 N    3.788 --     8 C    0.958     7 C    0.958     2 C    0.953
                             4 H    0.915
     4   1 H    0.945 --     3 N    0.915
     5   1 H    0.989 --     2 C    0.977
     6   1 H    0.987 --     2 C    0.974
     7   6 C    3.912 --    10 H    0.974    13 H    0.974     9 H    0.973
                             3 N    0.958
     8   6 C    3.913 --    14 H    0.974    12 H    0.974    11 H    0.974
                             3 N    0.958
     9   1 H    0.987 --     7 C    0.973
    10   1 H    0.988 --     7 C    0.974
    11   1 H    0.988 --     8 C    0.974
    12   1 H    0.987 --     8 C    0.974
    13   1 H    0.988 --     7 C    0.974
    14   1 H    0.988 --     8 C    0.974
 ---------------------------------------------------------------------------

molecular dipole:
                 x           y           z       tot (Debye)
 q only:       -0.045      -0.168      -0.216
   full:       -0.073      -0.288      -0.358       1.183

           -------------------------------------------------
          | TOTAL ENERGY              -14.016792769871 Eh   |
          | GRADIENT NORM               0.000221259642 Eh/α |
          | HOMO-LUMO GAP              11.246799128782 eV   |
           -------------------------------------------------

 * finished run on 2023/11/18 at 08:09:13.668
