                               Psi4 1.6 release

  ==> Input File <==

--------------------------------------------------------------------------
molecule {
1 1
 H    1.602467    0.208567   -1.528935
 C    1.153065    0.577768   -0.610394
 N   -0.021601   -0.248740   -0.219307
 H   -0.092382   -1.011744   -0.901193
 H    0.853535    1.611259   -0.770392
 H    1.908498    0.563039    0.171501
 C   -1.284231    0.508608   -0.291467
 C    0.159961   -0.865624    1.107687
 H   -1.255018    1.341070    0.410035
 H   -1.437157    0.894079   -1.297842
 H    1.092160   -1.426213    1.140989
 H    0.188749   -0.088454    1.870478
 H   -2.125313   -0.133460   -0.034813
 H   -0.664135   -1.541382    1.329662
}
memory 20GB
set_num_threads(5)
psi4_io.set_default_path("/scratch/liuchw/Psi4-32_40_Index_0-farH_in17")
set freeze_core True
E, wfn = energy('wb97x-d/6-311+G*',return_wfn=True)
oeprop(wfn,"WIBERG_LOWDIN_INDICES")
clean()
--------------------------------------------------------------------------

    Molecular point group: c1

    Geometry (in Angstrom), charge = 1, multiplicity = 1:

       Center              X                  Y                   Z               Mass
    ------------   -----------------  -----------------  -----------------  -----------------
         H            1.600552555897     0.215458966251    -1.525464331182     1.007825032230
         C            1.151150555897     0.584659966251    -0.606923331182    12.000000000000
         N           -0.023515444103    -0.241848033749    -0.215836331182    14.003074004430
         H           -0.094296444103    -1.004852033749    -0.897722331182     1.007825032230
         H            0.851620555897     1.618150966251    -0.766921331182     1.007825032230
         H            1.906583555897     0.569930966251     0.174971668818     1.007825032230
         C           -1.286145444103     0.515499966251    -0.287996331182    12.000000000000
         C            0.158046555897    -0.858732033749     1.111157668818    12.000000000000
         H           -1.256932444103     1.347961966251     0.413505668818     1.007825032230
         H           -1.439071444103     0.900970966251    -1.294371331182     1.007825032230
         H            1.090245555897    -1.419321033749     1.144459668818     1.007825032230
         H            0.186834555897    -0.081562033749     1.873948668818     1.007825032230
         H           -2.127227444103    -0.126568033749    -0.031342331182     1.007825032230
         H           -0.666049444103    -1.534490033749     1.333132668818     1.007825032230

  Charge       = 1
  Multiplicity = 1
  Basis Set: 6-311+G*
    Blend: 6-311+G*
  Basis Set: (6-311+G* AUX)
    Blend: HEAVY-AUG-CC-PVTZ-JKFIT

    Orbital Energies [Eh]
    ---------------------

    Doubly Occupied:

       1A    -14.757416     2A    -10.515532     3A    -10.515413
       4A    -10.514364     5A     -1.321033     6A     -1.038792
       7A     -1.037560     8A     -0.962762     9A     -0.852551
      10A     -0.792438    11A     -0.790556    12A     -0.708141
      13A     -0.706549    14A     -0.675476    15A     -0.673324
      16A     -0.669454    17A     -0.665109

  @DF-RKS Final Energy:  -174.82533428149480

   => Energetics <=

    Nuclear Repulsion Energy =            147.4221972596550359
    One-Electron Energy =                -517.8520005204925383
    Two-Electron Energy =                 213.7513939876788243
    DFT Exchange-Correlation Energy =     -18.1400683255386035
    Empirical Dispersion Energy =          -0.0068566827975158
    VV10 Nonlocal Energy =                  0.0000000000000000
    Total Energy =                       -174.8253342814948041
 Dipole X            :         -0.0636397            0.0490600           -0.0145796
 Dipole Y            :         -0.7130539            0.4560132           -0.2570407
 Dipole Z            :         -0.6389111            0.3982983           -0.2406128
 Magnitude           :                                                    0.3523875
*** Psi4 exiting successfully. Buy a developer a beer!
