   * xtb version 6.5.0 (97a52f5) compiled by 'conda@d2599ee0d4f4' on 2022-05-15
          program call               : /home/liuchw/anaconda3/envs/xtbenv/bin/xtb --gfn 2 --chrg 1 --uhf 0 32_40_Index_0-opt-2-3-213_preQMOPTprefit_xyzformat.xyz --opt --input xtb-opt-2-3-213_constr.txt

   ID    Z sym.   atoms
    1    1 H      1, 4-6, 9-14
    2    6 C      2, 7, 8
    3    7 N      3
constraining angle 5 2 3 4 to  212.9106487°, actual value: -147.0893513°
constraining angle 5 2 3 7 to   96.0542006°, actual value:   96.0542006°
constraining angle 10 7 3 4 to  300.9451329°, actual value:  -59.0548671°
constraining angle 10 7 3 2 to   58.0612673°, actual value:   58.0612673°
constraining angle 11 8 3 4 to   62.9201924°, actual value:   62.9201924°
constraining angle 11 8 3 2 to  306.0814677°, actual value:  -53.9185323°

          :  Hamiltonian                  GFN2-xTB          :
 * total energy  :   -14.0131392 Eh     change       -0.1352518E-10 Eh
 * total energy  :   -14.0157350 Eh     change       -0.2595840E-02 Eh
 * total energy  :   -14.0161994 Eh     change       -0.4643663E-03 Eh
 * total energy  :   -14.0162084 Eh     change       -0.8962697E-05 Eh
 * total energy  :   -14.0162095 Eh     change       -0.1188897E-05 Eh
 * total energy  :   -14.0162100 Eh     change       -0.4372220E-06 Eh
 * total energy  :   -14.0162098 Eh     change        0.2025953E-06 Eh
 * total energy  :   -14.0162101 Eh     change       -0.2885205E-06 Eh
   *** GEOMETRY OPTIMIZATION CONVERGED AFTER 8 ITERATIONS ***

 final structure:
================
14
 xtb: 6.5.0 (97a52f5)
H            0.88470657389552        1.23885379762888       -1.38687839911735
C            1.16394536219797        0.55633415548867       -0.58876136880107
N            0.01148011913460       -0.28039725347689       -0.17802046038622
H            0.04334969405513       -1.13734376447663       -0.74234532559378
H            1.53530885389770        1.12384208590761        0.26251447761231
H            1.98143470332116       -0.07122499028109       -0.94021069155378
C           -1.27796579023426        0.37393383948407       -0.46497951896820
C            0.11828947601030       -0.68553798834808        1.23468431617742
H           -1.35050792048940        1.30286268314774        0.09950616233992
H           -1.36157031102966        0.60070219094875       -1.52587522785480
H            1.07681723128798       -1.16820019733977        1.41687542980309
H            0.03556377540256        0.19088038204323        1.87577853987273
H           -2.10429783228440       -0.27408478750316       -0.17847898424535
H           -0.67795693516520       -1.38184815322334        1.49219904071508

          :  Hamiltonian                  GFN2-xTB          :
         :: total energy             -14.016210069455 Eh    ::
         :: gradient norm              0.000912554264 Eh/a0 ::
         :: HOMO-LUMO gap             11.174230555849 eV    ::
         :: SCC energy               -14.214507381966 Eh    ::
         :: -> dispersion             -0.005278288803 Eh    ::
         :: repulsion energy           0.198282952286 Eh    ::

    * Orbital Energies and Occupations

         #    Occupation            Energy/Eh            Energy/eV
      -------------------------------------------------------------
         1        2.0000           -0.8919143             -24.2702
         2        2.0000           -0.8456990             -23.0126
         3        2.0000           -0.8446364             -22.9837
         4        2.0000           -0.8111647             -22.0729
         5        2.0000           -0.7640165             -20.7899
         6        2.0000           -0.7408994             -20.1609
         7        2.0000           -0.7403484             -20.1459
         8        2.0000           -0.6827475             -18.5785
         9        2.0000           -0.6825386             -18.5728
        10        2.0000           -0.6660027             -18.1229
        11        2.0000           -0.6657949             -18.1172
        12        2.0000           -0.6604060             -17.9706
        13        2.0000           -0.6570430             -17.8791 (HOMO)
        14                         -0.2463976              -6.7048 (LUMO)
        15                         -0.1585470              -4.3143
        16                         -0.1536957              -4.1823
        17                         -0.1443184              -3.9271
        18                         -0.0549110              -1.4942
        19                         -0.0054648              -0.1487
        20                         -0.0000272              -0.0007
        21                          0.0034343               0.0935
        22                          0.0259586               0.7064
        23                          0.0332283               0.9042
        24                          0.0363783               0.9899
       ...                                ...                  ...
        26                          0.0671801               1.8281
      -------------------------------------------------------------
                  HL-Gap            0.4106454 Eh           11.1742 eV

     #   Z          covCN         q      C6AA      α(0)
     1   1 H        0.925     0.115     1.655     2.012
     2   6 C        3.697    -0.105    22.693     6.814
     3   7 N        3.576     0.080    19.847     6.617
     4   1 H        0.859     0.234     0.949     1.526
     5   1 H        0.925     0.115     1.653     2.011
     6   1 H        0.925     0.105     1.743     2.065
     7   6 C        3.698    -0.103    22.637     6.805
     8   6 C        3.699    -0.102    22.629     6.803
     9   1 H        0.925     0.114     1.664     2.017
    10   1 H        0.925     0.108     1.714     2.047
    11   1 H        0.925     0.110     1.694     2.035
    12   1 H        0.925     0.113     1.674     2.023
    13   1 H        0.925     0.109     1.707     2.043
    14   1 H        0.925     0.108     1.712     2.046

Wiberg/Mayer (AO) data.
largest (>0.10) Wiberg bond orders for each atom

     #   Z sym  total        # sym  WBO       # sym  WBO       # sym  WBO
 ---------------------------------------------------------------------------
     1   1 H    0.987 --     2 C    0.973
     2   6 C    3.910 --     6 H    0.978     5 H    0.974     1 H    0.973
                             3 N    0.952
     3   7 N    3.787 --     8 C    0.959     7 C    0.959     2 C    0.952
                             4 H    0.916
     4   1 H    0.945 --     3 N    0.916
     5   1 H    0.987 --     2 C    0.974
     6   1 H    0.989 --     2 C    0.978
     7   6 C    3.913 --    10 H    0.974     9 H    0.974    13 H    0.974
                             3 N    0.959
     8   6 C    3.913 --    14 H    0.974    11 H    0.974    12 H    0.974
                             3 N    0.959
     9   1 H    0.987 --     7 C    0.974
    10   1 H    0.988 --     7 C    0.974
    11   1 H    0.988 --     8 C    0.974
    12   1 H    0.987 --     8 C    0.974
    13   1 H    0.988 --     7 C    0.974
    14   1 H    0.988 --     8 C    0.974
 ---------------------------------------------------------------------------

molecular dipole:
                 x           y           z       tot (Debye)
 q only:        0.024      -0.235      -0.143
   full:        0.032      -0.393      -0.243       1.178

           -------------------------------------------------
          | TOTAL ENERGY              -14.016210069455 Eh   |
          | GRADIENT NORM               0.000912554264 Eh/α |
          | HOMO-LUMO GAP              11.174230555849 eV   |
           -------------------------------------------------

 * finished run on 2023/11/18 at 08:08:44.824
