   * xtb version 6.5.0 (97a52f5) compiled by 'conda@d2599ee0d4f4' on 2022-05-15
          program call               : /home/liuchw/anaconda3/envs/xtbenv/bin/xtb --gfn 2 --chrg 1 --uhf 0 32_40_Index_0-opt-2-3-003_preQMOPTprefit_xyzformat.xyz --opt --input xtb-opt-2-3-003_constr.txt

   ID    Z sym.   atoms
    1    1 H      1, 4-6, 9-14
    2    6 C      2, 7, 8
    3    7 N      3
constraining angle 5 2 3 4 to    2.9213128°, actual value:    2.9213128°
constraining angle 5 2 3 7 to  246.0806599°, actual value: -113.9193401°
constraining angle 10 7 3 4 to  300.9520163°, actual value:  -59.0479837°
constraining angle 10 7 3 2 to   58.0438371°, actual value:   58.0438371°
constraining angle 11 8 3 4 to   62.9295049°, actual value:   62.9295049°
constraining angle 11 8 3 2 to  306.0617070°, actual value:  -53.9382930°

          :  Hamiltonian                  GFN2-xTB          :
 * total energy  :   -14.0110156 Eh     change       -0.3738343E-10 Eh
 * total energy  :   -14.0136897 Eh     change       -0.2674038E-02 Eh
 * total energy  :   -14.0141513 Eh     change       -0.4616625E-03 Eh
 * total energy  :   -14.0141526 Eh     change       -0.1264399E-05 Eh
 * total energy  :   -14.0141663 Eh     change       -0.1365773E-04 Eh
 * total energy  :   -14.0141666 Eh     change       -0.3356468E-06 Eh
 * total energy  :   -14.0141669 Eh     change       -0.2688578E-06 Eh
   *** GEOMETRY OPTIMIZATION CONVERGED AFTER 7 ITERATIONS ***

 final structure:
================
14
 xtb: 6.5.0 (97a52f5)
H            1.95156314500077        0.40198625385688        0.04048675940607
C            1.12149915077337        0.62176379810275       -0.62692026438207
N           -0.07045865066627       -0.19201624920536       -0.26260040514925
H           -0.27582985172071       -0.79914881139438       -1.06347704897588
H            1.43982105971075        0.41569075543575       -1.64568832815355
H            0.89724087534381        1.68288752103621       -0.54395865663928
C           -1.26598940899825        0.64072409217351       -0.03878271052681
C            0.19696815036667       -1.06952983159164        0.89186279055308
H           -1.09398862570551        1.31443840493666        0.79933031950268
H           -1.49086280247506        1.22636536657854       -0.92828349566170
H            1.07733999156375       -1.68196003769755        0.70690135416236
H            0.37043457411566       -0.46217996073617        1.77939068707432
H           -2.12617994279937        0.01350665335525        0.18973133968083
H           -0.65296266450962       -1.72375595485043        1.07801566910920

          :  Hamiltonian                  GFN2-xTB          :
         :: total energy             -14.014166872790 Eh    ::
         :: gradient norm              0.000852895387 Eh/a0 ::
         :: HOMO-LUMO gap             11.071035258849 eV    ::
         :: SCC energy               -14.212287024124 Eh    ::
         :: -> dispersion             -0.005272343886 Eh    ::
         :: repulsion energy           0.198100777379 Eh    ::

    * Orbital Energies and Occupations

         #    Occupation            Energy/Eh            Energy/eV
      -------------------------------------------------------------
         1        2.0000           -0.8911722             -24.2500
         2        2.0000           -0.8450559             -22.9951
         3        2.0000           -0.8439315             -22.9645
         4        2.0000           -0.8107368             -22.0613
         5        2.0000           -0.7638225             -20.7847
         6        2.0000           -0.7405772             -20.1521
         7        2.0000           -0.7399217             -20.1343
         8        2.0000           -0.6846640             -18.6307
         9        2.0000           -0.6832127             -18.5912
        10        2.0000           -0.6660753             -18.1248
        11        2.0000           -0.6650624             -18.0973
        12        2.0000           -0.6580235             -17.9057
        13        2.0000           -0.6561232             -17.8540 (HOMO)
        14                         -0.2492702              -6.7830 (LUMO)
        15                         -0.1614476              -4.3932
        16                         -0.1572433              -4.2788
        17                         -0.1455115              -3.9596
        18                         -0.0540598              -1.4710
        19                         -0.0066190              -0.1801
        20                          0.0002452               0.0067
        21                          0.0025601               0.0697
        22                          0.0258409               0.7032
        23                          0.0310413               0.8447
        24                          0.0344874               0.9384
       ...                                ...                  ...
        26                          0.0777699               2.1162
      -------------------------------------------------------------
                  HL-Gap            0.4068531 Eh           11.0710 eV

     #   Z          covCN         q      C6AA      α(0)
     1   1 H        0.925     0.116     1.646     2.006
     2   6 C        3.694    -0.107    22.733     6.821
     3   7 N        3.576     0.079    19.867     6.620
     4   1 H        0.859     0.234     0.948     1.526
     5   1 H        0.925     0.105     1.737     2.061
     6   1 H        0.925     0.116     1.645     2.006
     7   6 C        3.698    -0.102    22.629     6.804
     8   6 C        3.698    -0.102    22.630     6.804
     9   1 H        0.925     0.113     1.671     2.022
    10   1 H        0.925     0.109     1.704     2.041
    11   1 H        0.925     0.109     1.703     2.041
    12   1 H        0.925     0.113     1.668     2.020
    13   1 H        0.925     0.109     1.709     2.044
    14   1 H        0.925     0.108     1.714     2.047

Wiberg/Mayer (AO) data.
largest (>0.10) Wiberg bond orders for each atom

     #   Z sym  total        # sym  WBO       # sym  WBO       # sym  WBO
 ---------------------------------------------------------------------------
     1   1 H    0.987 --     2 C    0.973
     2   6 C    3.908 --     5 H    0.980     6 H    0.974     1 H    0.973
                             3 N    0.948
     3   7 N    3.786 --     7 C    0.960     8 C    0.960     2 C    0.948
                             4 H    0.917
     4   1 H    0.945 --     3 N    0.917
     5   1 H    0.989 --     2 C    0.980
     6   1 H    0.987 --     2 C    0.974
     7   6 C    3.913 --    10 H    0.975     9 H    0.974    13 H    0.974
                             3 N    0.960
     8   6 C    3.913 --    11 H    0.974    12 H    0.974    14 H    0.974
                             3 N    0.960
     9   1 H    0.987 --     7 C    0.974
    10   1 H    0.988 --     7 C    0.975
    11   1 H    0.988 --     8 C    0.974
    12   1 H    0.987 --     8 C    0.974
    13   1 H    0.988 --     7 C    0.974
    14   1 H    0.988 --     8 C    0.974
 ---------------------------------------------------------------------------

molecular dipole:
                 x           y           z       tot (Debye)
 q only:       -0.050      -0.146      -0.221
   full:       -0.089      -0.256      -0.365       1.156

           -------------------------------------------------
          | TOTAL ENERGY              -14.014166872790 Eh   |
          | GRADIENT NORM               0.000852895387 Eh/α |
          | HOMO-LUMO GAP              11.071035258849 eV   |
           -------------------------------------------------

 * finished run on 2023/11/18 at 08:09:28.528
