                               Psi4 1.6 release

  ==> Input File <==

--------------------------------------------------------------------------
molecule {
1 1
 H    0.831345    1.503506   -0.968237
 C    1.180610    0.546298   -0.586750
 N    0.027529   -0.292785   -0.160044
 H    0.091724   -1.176584   -0.676770
 H    1.840283    0.745439    0.254494
 H    1.754899    0.055897   -1.368564
 C   -1.266770    0.317371   -0.514264
 C    0.090896   -0.622034    1.275964
 H   -1.379496    1.268930    0.003251
 H   -1.324419    0.485060   -1.588205
 H    1.048831   -1.077967    1.518563
 H   -0.025461    0.287403    1.864289
 H   -2.086047   -0.337294   -0.221366
 H   -0.705327   -1.314467    1.543648
}
memory 20GB
set_num_threads(5)
psi4_io.set_default_path("/scratch/liuchw/Psi4-32_40_Index_0-farH_in17")
set freeze_core True
E, wfn = energy('wb97x-d/6-311+G*',return_wfn=True)
oeprop(wfn,"WIBERG_LOWDIN_INDICES")
clean()
--------------------------------------------------------------------------

    Molecular point group: c1

    Geometry (in Angstrom), charge = 1, multiplicity = 1:

       Center              X                  Y                   Z               Mass
    ------------   -----------------  -----------------  -----------------  -----------------
         H            0.823205745762     1.516104001446    -0.971935664587     1.007825032230
         C            1.172470745762     0.558896001446    -0.590448664587    12.000000000000
         N            0.019389745762    -0.280186998554    -0.163742664587    14.003074004430
         H            0.083584745762    -1.163985998554    -0.680468664587     1.007825032230
         H            1.832143745762     0.758037001446     0.250795335413     1.007825032230
         H            1.746759745762     0.068495001446    -1.372262664587     1.007825032230
         C           -1.274909254238     0.329969001446    -0.517962664587    12.000000000000
         C            0.082756745762    -0.609435998554     1.272265335413    12.000000000000
         H           -1.387635254238     1.281528001446    -0.000447664587     1.007825032230
         H           -1.332558254238     0.497658001446    -1.591903664587     1.007825032230
         H            1.040691745762    -1.065368998554     1.514864335413     1.007825032230
         H           -0.033600254238     0.300001001446     1.860590335413     1.007825032230
         H           -2.094186254238    -0.324695998554    -0.225064664587     1.007825032230
         H           -0.713466254238    -1.301868998554     1.539949335413     1.007825032230

  Charge       = 1
  Multiplicity = 1
  Basis Set: 6-311+G*
    Blend: 6-311+G*
  Basis Set: (6-311+G* AUX)
    Blend: HEAVY-AUG-CC-PVTZ-JKFIT

    Orbital Energies [Eh]
    ---------------------

    Doubly Occupied:

       1A    -14.757428     2A    -10.515541     3A    -10.515413
       4A    -10.514371     5A     -1.321039     6A     -1.038768
       7A     -1.037560     8A     -0.962807     9A     -0.852522
      10A     -0.792465    11A     -0.790477    12A     -0.708336
      13A     -0.706433    14A     -0.675500    15A     -0.673241
      16A     -0.669765    17A     -0.664805

  @DF-RKS Final Energy:  -174.82533345764915

   => Energetics <=

    Nuclear Repulsion Energy =            147.4233550576106495
    One-Electron Energy =                -517.8543469066104308
    Two-Electron Energy =                 213.7525280780750165
    DFT Exchange-Correlation Energy =     -18.1400123218817484
    Empirical Dispersion Energy =          -0.0068573648426102
    VV10 Nonlocal Energy =                  0.0000000000000000
    Total Energy =                       -174.8253334576491227
 Dipole X            :          0.0646999           -0.0329245            0.0317754
 Dipole Y            :         -0.8296559            0.5313306           -0.2983253
 Dipole Z            :         -0.4874590            0.3043248           -0.1831342
 Magnitude           :                                                    0.3514908
*** Psi4 exiting successfully. Buy a developer a beer!
