   * xtb version 6.5.0 (97a52f5) compiled by 'conda@d2599ee0d4f4' on 2022-05-15
          program call               : /home/liuchw/anaconda3/envs/xtbenv/bin/xtb --gfn 2 --chrg 1 --uhf 0 32_40_Index_0-opt-2-3-153_preQMOPTprefit_xyzformat.xyz --opt --input xtb-opt-2-3-153_constr.txt

   ID    Z sym.   atoms
    1    1 H      1, 4-6, 9-14
    2    6 C      2, 7, 8
    3    7 N      3
constraining angle 5 2 3 4 to  152.9573541°, actual value:  152.9573541°
constraining angle 5 2 3 7 to   36.0800940°, actual value:   36.0800940°
constraining angle 10 7 3 4 to  300.9725484°, actual value:  -59.0274516°
constraining angle 10 7 3 2 to   58.0194427°, actual value:   58.0194427°
constraining angle 11 8 3 4 to   62.9566324°, actual value:   62.9566324°
constraining angle 11 8 3 2 to  306.0314729°, actual value:  -53.9685271°

          :  Hamiltonian                  GFN2-xTB          :
 * total energy  :   -14.0136348 Eh     change       -0.9830359E-11 Eh
 * total energy  :   -14.0162926 Eh     change       -0.2657811E-02 Eh
 * total energy  :   -14.0167654 Eh     change       -0.4727720E-03 Eh
 * total energy  :   -14.0167354 Eh     change        0.2993595E-04 Eh
 * total energy  :   -14.0168041 Eh     change       -0.6867573E-04 Eh
 * total energy  :   -14.0168037 Eh     change        0.4113374E-06 Eh
 * total energy  :   -14.0168057 Eh     change       -0.2018834E-05 Eh
   *** GEOMETRY OPTIMIZATION CONVERGED AFTER 7 ITERATIONS ***

 final structure:
================
14
 xtb: 6.5.0 (97a52f5)
H            1.28254350391761        0.55148762391324       -1.67704160469703
C            1.15507416441211        0.56355233010748       -0.59535452622472
N           -0.00708801638326       -0.26730283705747       -0.20729672482885
H           -0.03841193650477       -1.06130371623893       -0.85725965869419
H            0.98717010063574        1.59841004727615       -0.30193471923683
H            2.06814410149053        0.19615128838768       -0.13521310175205
C           -1.27669278746770        0.46555213859283       -0.35477848460617
C            0.14753900628590       -0.80529986138212        1.15672499168536
H           -1.28529485081315        1.32834245109314        0.30917367174365
H           -1.40024141801513        0.80517886681377       -1.38171817454791
H            1.09132033696704       -1.33794571314653        1.25304030105961
H            0.13967703426468        0.01545267111813        1.87316600430716
H           -2.11654033151193       -0.17871253058470       -0.10007446200336
H           -0.66860189727766       -1.48479175889266        1.39457449779533

          :  Hamiltonian                  GFN2-xTB          :
         :: total energy             -14.016805709209 Eh    ::
         :: gradient norm              0.000195477720 Eh/a0 ::
         :: HOMO-LUMO gap             11.232743396250 eV    ::
         :: SCC energy               -14.215234489603 Eh    ::
         :: -> dispersion             -0.005282553074 Eh    ::
         :: repulsion energy           0.198389309278 Eh    ::

    * Orbital Energies and Occupations

         #    Occupation            Energy/Eh            Energy/eV
      -------------------------------------------------------------
         1        2.0000           -0.8921761             -24.2773
         2        2.0000           -0.8454833             -23.0068
         3        2.0000           -0.8449696             -22.9928
         4        2.0000           -0.8116086             -22.0850
         5        2.0000           -0.7640046             -20.7896
         6        2.0000           -0.7410413             -20.1648
         7        2.0000           -0.7404872             -20.1497
         8        2.0000           -0.6828713             -18.5819
         9        2.0000           -0.6817144             -18.5504
        10        2.0000           -0.6660663             -18.1246
        11        2.0000           -0.6656653             -18.1137
        12        2.0000           -0.6607485             -17.9799
        13        2.0000           -0.6581567             -17.9094 (HOMO)
        14                         -0.2453610              -6.6766 (LUMO)
        15                         -0.1578354              -4.2949
        16                         -0.1539630              -4.1895
        17                         -0.1430029              -3.8913
        18                         -0.0563761              -1.5341
        19                         -0.0044861              -0.1221
        20                         -0.0010647              -0.0290
        21                          0.0050656               0.1378
        22                          0.0273997               0.7456
        23                          0.0318217               0.8659
        24                          0.0429936               1.1699
       ...                                ...                  ...
        26                          0.0626611               1.7051
      -------------------------------------------------------------
                  HL-Gap            0.4127957 Eh           11.2327 eV

     #   Z          covCN         q      C6AA      α(0)
     1   1 H        0.925     0.105     1.742     2.064
     2   6 C        3.698    -0.105    22.678     6.811
     3   7 N        3.577     0.081    19.838     6.615
     4   1 H        0.859     0.234     0.949     1.526
     5   1 H        0.925     0.115     1.658     2.014
     6   1 H        0.925     0.114     1.663     2.017
     7   6 C        3.699    -0.102    22.628     6.803
     8   6 C        3.700    -0.103    22.633     6.804
     9   1 H        0.925     0.113     1.674     2.024
    10   1 H        0.925     0.110     1.700     2.039
    11   1 H        0.925     0.108     1.710     2.045
    12   1 H        0.925     0.114     1.662     2.016
    13   1 H        0.925     0.109     1.705     2.042
    14   1 H        0.925     0.108     1.711     2.046

Wiberg/Mayer (AO) data.
largest (>0.10) Wiberg bond orders for each atom

     #   Z sym  total        # sym  WBO       # sym  WBO       # sym  WBO
 ---------------------------------------------------------------------------
     1   1 H    0.989 --     2 C    0.978
     2   6 C    3.911 --     1 H    0.978     5 H    0.974     6 H    0.972
                             3 N    0.953
     3   7 N    3.788 --     7 C    0.959     8 C    0.958     2 C    0.953
                             4 H    0.915
     4   1 H    0.945 --     3 N    0.915
     5   1 H    0.987 --     2 C    0.974
     6   1 H    0.987 --     2 C    0.972
     7   6 C    3.912 --    10 H    0.974    13 H    0.974     9 H    0.973
                             3 N    0.959
     8   6 C    3.913 --    14 H    0.974    12 H    0.974    11 H    0.974
                             3 N    0.958
     9   1 H    0.987 --     7 C    0.973
    10   1 H    0.988 --     7 C    0.974
    11   1 H    0.988 --     8 C    0.974
    12   1 H    0.987 --     8 C    0.974
    13   1 H    0.988 --     7 C    0.974
    14   1 H    0.988 --     8 C    0.974
 ---------------------------------------------------------------------------

molecular dipole:
                 x           y           z       tot (Debye)
 q only:        0.002      -0.219      -0.170
   full:       -0.007      -0.362      -0.292       1.182

           -------------------------------------------------
          | TOTAL ENERGY              -14.016805709209 Eh   |
          | GRADIENT NORM               0.000195477720 Eh/α |
          | HOMO-LUMO GAP              11.232743396250 eV   |
           -------------------------------------------------

 * finished run on 2023/11/18 at 08:08:15.926
