                               Psi4 1.6 release

  ==> Input File <==

--------------------------------------------------------------------------
molecule {
1 1
 H    0.884707    1.238854   -1.386878
 C    1.163945    0.556334   -0.588761
 N    0.011480   -0.280397   -0.178020
 H    0.043350   -1.137344   -0.742345
 H    1.535309    1.123842    0.262514
 H    1.981435   -0.071225   -0.940211
 C   -1.277966    0.373934   -0.464980
 C    0.118289   -0.685538    1.234684
 H   -1.350508    1.302863    0.099506
 H   -1.361570    0.600702   -1.525875
 H    1.076817   -1.168200    1.416875
 H    0.035564    0.190880    1.875779
 H   -2.104298   -0.274085   -0.178479
 H   -0.677957   -1.381848    1.492199
}
memory 20GB
set_num_threads(5)
psi4_io.set_default_path("/scratch/liuchw/Psi4-32_40_Index_0-farH_in17")
set freeze_core True
E, wfn = energy('wb97x-d/6-311+G*',return_wfn=True)
oeprop(wfn,"WIBERG_LOWDIN_INDICES")
clean()
--------------------------------------------------------------------------

    Molecular point group: c1

    Geometry (in Angstrom), charge = 1, multiplicity = 1:

       Center              X                  Y                   Z               Mass
    ------------   -----------------  -----------------  -----------------  -----------------
         H            0.880124676156     1.248206318696    -1.387784990125     1.007825032230
         C            1.159362676156     0.565686318696    -0.589667990125    12.000000000000
         N            0.006897676156    -0.271044681304    -0.178926990125    14.003074004430
         H            0.038767676156    -1.127991681304    -0.743251990125     1.007825032230
         H            1.530726676156     1.133194318696     0.261607009875     1.007825032230
         H            1.976852676156    -0.061872681304    -0.941117990125     1.007825032230
         C           -1.282548323844     0.383286318696    -0.465886990125    12.000000000000
         C            0.113706676156    -0.676185681304     1.233777009875    12.000000000000
         H           -1.355090323844     1.312215318696     0.098599009875     1.007825032230
         H           -1.366152323844     0.610054318696    -1.526781990125     1.007825032230
         H            1.072234676156    -1.158847681304     1.415968009875     1.007825032230
         H            0.030981676156     0.200232318696     1.874872009875     1.007825032230
         H           -2.108880323844    -0.264732681304    -0.179385990125     1.007825032230
         H           -0.682539323844    -1.372495681304     1.491292009875     1.007825032230

  Charge       = 1
  Multiplicity = 1
  Basis Set: 6-311+G*
    Blend: 6-311+G*
  Basis Set: (6-311+G* AUX)
    Blend: HEAVY-AUG-CC-PVTZ-JKFIT

    Orbital Energies [Eh]
    ---------------------

    Doubly Occupied:

       1A    -14.757863     2A    -10.515823     3A    -10.515375
       4A    -10.514846     5A     -1.322387     6A     -1.039677
       7A     -1.037989     8A     -0.962512     9A     -0.853255
      10A     -0.793058    11A     -0.792101    12A     -0.706150
      13A     -0.704066    14A     -0.675332    15A     -0.674773
      16A     -0.670631    17A     -0.668377

  @DF-RKS Final Energy:  -174.82769454840661

   => Energetics <=

    Nuclear Repulsion Energy =            147.5781508373587201
    One-Electron Energy =                -518.1527016299260140
    Two-Electron Energy =                 213.8944191068546274
    DFT Exchange-Correlation Energy =     -18.1406498360219359
    Empirical Dispersion Energy =          -0.0069130266720366
    VV10 Nonlocal Energy =                  0.0000000000000000
    Total Energy =                       -174.8276945484066118
 Dipole X            :          0.0034351            0.0159411            0.0193762
 Dipole Y            :         -0.7832543            0.4863610           -0.2968933
 Dipole Z            :         -0.5367047            0.3417727           -0.1949320
 Magnitude           :                                                    0.3556959
*** Psi4 exiting successfully. Buy a developer a beer!
