   * xtb version 6.5.0 (97a52f5) compiled by 'conda@d2599ee0d4f4' on 2022-05-15
          program call               : /home/liuchw/anaconda3/envs/xtbenv/bin/xtb --gfn 2 --chrg 0 --uhf 0 35_38_Index_0-opt-2-3-300_preQMOPTprefit_xyzformat.xyz --opt --input xtb-opt-2-3-300_constr.txt

   ID    Z sym.   atoms
    1    1 H      1, 5, 6, 8
    2    6 C      2, 4
    3    8 O      3, 7
constraining angle 1 2 3 4 to  299.9984711°, actual value:  -60.0015289°
constraining angle 2 3 4 7 to  359.9985765°, actual value:   -0.0014235°

          :  Hamiltonian                  GFN2-xTB          :
 * total energy  :   -14.4400116 Eh     change       -0.1296740E-12 Eh
 * total energy  :   -14.4429759 Eh     change       -0.2964323E-02 Eh
 * total energy  :   -14.4433367 Eh     change       -0.3607438E-03 Eh
 * total energy  :   -14.4433591 Eh     change       -0.2246995E-04 Eh
 * total energy  :   -14.4433463 Eh     change        0.1282004E-04 Eh
 * total energy  :   -14.4433680 Eh     change       -0.2169694E-04 Eh
 * total energy  :   -14.4433630 Eh     change        0.4982538E-05 Eh
 * total energy  :   -14.4433696 Eh     change       -0.6560887E-05 Eh
 * total energy  :   -14.4433696 Eh     change       -0.5671478E-07 Eh
   *** GEOMETRY OPTIMIZATION CONVERGED AFTER 9 ITERATIONS ***

 final structure:
================
8
 xtb: 6.5.0 (97a52f5)
H           -1.78327001360615       -0.17878957236170       -0.43765453184231
C           -1.36340565653314        0.21509941465232        0.48969399481784
O           -0.09372009023355        0.81316691088131        0.23949077692996
C            0.83590868938541        0.01969038562149       -0.26258556309803
H           -1.25979630358173       -0.60294828321972        1.20486843382942
H           -1.99688306461279        0.99971245672011        0.89421886146277
O            0.71564857674343       -1.13971218245785       -0.52444714778404
H            1.76045686243852        0.60387288016403       -0.40632281431560

          :  Hamiltonian                  GFN2-xTB          :
         :: total energy             -14.443369637193 Eh    ::
         :: gradient norm              0.000103734714 Eh/a0 ::
         :: HOMO-LUMO gap              5.138433048612 eV    ::
         :: SCC energy               -14.571601113787 Eh    ::
         :: -> dispersion             -0.002876745691 Eh    ::
         :: repulsion energy           0.128231135770 Eh    ::

    * Orbital Energies and Occupations

         #    Occupation            Energy/Eh            Energy/eV
      -------------------------------------------------------------
         1        2.0000           -0.7602547             -20.6876
         2        2.0000           -0.7304596             -19.8768
         3        2.0000           -0.6870968             -18.6969
         4        2.0000           -0.6229194             -16.9505
         5        2.0000           -0.6038266             -16.4310
         6        2.0000           -0.6017775             -16.3752
         7        2.0000           -0.5731210             -15.5954
         8        2.0000           -0.5261346             -14.3169
         9        2.0000           -0.5215107             -14.1910
        10        2.0000           -0.4899513             -13.3323
        11        2.0000           -0.4627864             -12.5931
        12        2.0000           -0.4340476             -11.8110 (HOMO)
        13                         -0.2452136              -6.6726 (LUMO)
        14                          0.0096629               0.2629
        15                          0.1207901               3.2869
        16                          0.1423319               3.8730
        17                          0.1834245               4.9912
        18                          0.1858219               5.0565
        19                          0.2716098               7.3909
        20                          0.6467383              17.5986
      -------------------------------------------------------------
                  HL-Gap            0.1888339 Eh            5.1384 eV

     #   Z          covCN         q      C6AA      α(0)
     1   1 H        0.924     0.070     2.089     2.260
     2   6 C        3.660     0.026    20.419     6.484
     3   8 O        1.703    -0.238    17.938     5.718
     4   6 C        2.671     0.336    21.283     7.549
     5   1 H        0.924     0.070     2.089     2.260
     6   1 H        0.925     0.076     2.022     2.224
     7   8 O        0.856    -0.371    21.118     6.161
     8   1 H        0.923     0.032     2.565     2.504

Wiberg/Mayer (AO) data.
largest (>0.10) Wiberg bond orders for each atom

     #   Z sym  total        # sym  WBO       # sym  WBO       # sym  WBO
 ---------------------------------------------------------------------------
     1   1 H    0.995 --     2 C    0.977
     2   6 C    3.920 --     6 H    0.982     1 H    0.977     5 H    0.977
                             3 O    0.949
     3   8 O    2.342 --     4 C    1.176     2 C    0.949     7 O    0.195
     4   6 C    3.922 --     7 O    1.803     3 O    1.176     8 H    0.915
     5   1 H    0.995 --     2 C    0.977
     6   1 H    0.994 --     2 C    0.982
     7   8 O    2.069 --     4 C    1.803     3 O    0.195
     8   1 H    0.999 --     4 C    0.915
 ---------------------------------------------------------------------------

molecular dipole:
                 x           y           z       tot (Debye)
 q only:       -0.577       0.534       0.322
   full:       -0.522       0.655       0.336       2.294

           -------------------------------------------------
          | TOTAL ENERGY              -14.443369637193 Eh   |
          | GRADIENT NORM               0.000103734714 Eh/α |
          | HOMO-LUMO GAP               5.138433048612 eV   |
           -------------------------------------------------

 * finished run on 2023/11/18 at 08:05:27.736
