                               Psi4 1.6 release

  ==> Input File <==

--------------------------------------------------------------------------
molecule {
0 1
 H   -1.609475   -0.396629   -0.336398
 C   -1.351384    0.197190    0.542158
 O   -0.037790    0.733709    0.401484
 C    0.825519    0.030530   -0.309240
 H   -1.395162   -0.435238    1.430543
 H   -2.027671    1.041855    0.651205
 O    0.625411   -1.014729   -0.852218
 H    1.785492    0.573405   -0.330271
}
memory 20GB
set_num_threads(5)
psi4_io.set_default_path("/scratch/liuchw/Psi4-35_38_Index_0-farH_in17")
set freeze_core True
E, wfn = energy('wb97x-d/6-311+G*',return_wfn=True)
oeprop(wfn,"WIBERG_LOWDIN_INDICES")
clean()
--------------------------------------------------------------------------

    Molecular point group: c1

    Geometry (in Angstrom), charge = 0, multiplicity = 1:

       Center              X                  Y                   Z               Mass
    ------------   -----------------  -----------------  -----------------  -----------------
         H           -1.606415165603    -0.380422576676    -0.286610802744     1.007825032230
         C           -1.348324165603     0.213396423324     0.591945197256    12.000000000000
         O           -0.034730165603     0.749915423324     0.451271197256    15.994914619570
         C            0.828578834397     0.046736423324    -0.259452802744    12.000000000000
         H           -1.392102165603    -0.419031576676     1.480330197256     1.007825032230
         H           -2.024611165603     1.058061423324     0.700992197256     1.007825032230
         O            0.628470834397    -0.998522576676    -0.802430802744    15.994914619570
         H            1.788551834397     0.589611423324    -0.280483802744     1.007825032230

  Charge       = 0
  Multiplicity = 1
  Basis Set: 6-311+G*
    Blend: 6-311+G*
  Basis Set: (6-311+G* AUX)
    Blend: HEAVY-AUG-CC-PVTZ-JKFIT

    Orbital Energies [Eh]
    ---------------------

    Doubly Occupied:

       1A    -19.311314     2A    -19.248090     3A    -10.421235
       4A    -10.345221     5A     -1.233466     6A     -1.142492
       7A     -0.852829     8A     -0.698006     9A     -0.638004
      10A     -0.589718    11A     -0.577038    12A     -0.521184
      13A     -0.498760    14A     -0.455401    15A     -0.404718
      16A     -0.380835

  @DF-RKS Final Energy:  -229.05251973584788

   => Energetics <=

    Nuclear Repulsion Energy =            122.8592690312111273
    One-Electron Energy =                -555.2544545520868269
    Two-Electron Energy =                 223.8342521067774555
    DFT Exchange-Correlation Energy =     -20.4900212891150879
    Empirical Dispersion Energy =          -0.0015650326345465
    VV10 Nonlocal Energy =                  0.0000000000000000
    Total Energy =                       -229.0525197358478806
 Dipole X            :          2.6213548           -3.0294640           -0.4081092
 Dipole Y            :         -0.2495754            0.7939846            0.5444092
 Dipole Z            :         -1.0613711            1.5116020            0.4502308
 Magnitude           :                                                    0.8158690
*** Psi4 exiting successfully. Buy a developer a beer!
