   * xtb version 6.5.0 (97a52f5) compiled by 'conda@d2599ee0d4f4' on 2022-05-15
          program call               : /home/liuchw/anaconda3/envs/xtbenv/bin/xtb --gfn 2 --chrg 0 --uhf 0 35_38_Index_0-opt-2-3-210_preQMOPTprefit_xyzformat.xyz --opt --input xtb-opt-2-3-210_constr.txt

   ID    Z sym.   atoms
    1    1 H      1, 5, 6, 8
    2    6 C      2, 4
    3    8 O      3, 7
constraining angle 1 2 3 4 to  209.9875289°, actual value: -150.0124711°
constraining angle 2 3 4 7 to    0.0030541°, actual value:    0.0030541°

          :  Hamiltonian                  GFN2-xTB          :
 * total energy  :   -14.4398932 Eh     change       -0.2902212E-10 Eh
 * total energy  :   -14.4429465 Eh     change       -0.3053253E-02 Eh
 * total energy  :   -14.4433258 Eh     change       -0.3792742E-03 Eh
 * total energy  :   -14.4433226 Eh     change        0.3188644E-05 Eh
 * total energy  :   -14.4433599 Eh     change       -0.3732336E-04 Eh
 * total energy  :   -14.4433556 Eh     change        0.4291448E-05 Eh
 * total energy  :   -14.4433672 Eh     change       -0.1159056E-04 Eh
 * total energy  :   -14.4433674 Eh     change       -0.2214046E-06 Eh
   *** GEOMETRY OPTIMIZATION CONVERGED AFTER 8 ITERATIONS ***

 final structure:
================
8
 xtb: 6.5.0 (97a52f5)
H           -2.26109412284676        0.47979309388383       -0.28039765021938
C           -1.41258119578248        0.19261742404785        0.33629729775714
O           -0.24475208681565        0.70847156415254       -0.29866381208244
C            0.87853988425733        0.03411084321146       -0.13115134785159
H           -1.34375650991701       -0.89322270610917        0.42176548405326
H           -1.50942804625458        0.62748313375497        1.33260406188647
O            1.02598421874583       -0.97001758099924        0.49945944022639
H            1.68202784861331        0.55085722805776       -0.68265147376986

          :  Hamiltonian                  GFN2-xTB          :
         :: total energy             -14.443367408500 Eh    ::
         :: gradient norm              0.000267038789 Eh/a0 ::
         :: HOMO-LUMO gap              5.168545529204 eV    ::
         :: SCC energy               -14.571480424751 Eh    ::
         :: -> dispersion             -0.002866528518 Eh    ::
         :: repulsion energy           0.128112641426 Eh    ::

    * Orbital Energies and Occupations

         #    Occupation            Energy/Eh            Energy/eV
      -------------------------------------------------------------
         1        2.0000           -0.7602397             -20.6872
         2        2.0000           -0.7306885             -19.8830
         3        2.0000           -0.6874795             -18.7073
         4        2.0000           -0.6223922             -16.9362
         5        2.0000           -0.6041104             -16.4387
         6        2.0000           -0.6016095             -16.3706
         7        2.0000           -0.5734290             -15.6038
         8        2.0000           -0.5284169             -14.3790
         9        2.0000           -0.5206254             -14.1669
        10        2.0000           -0.4880854             -13.2815
        11        2.0000           -0.4619883             -12.5713
        12        2.0000           -0.4347288             -11.8296 (HOMO)
        13                         -0.2447882              -6.6610 (LUMO)
        14                          0.0076973               0.2095
        15                          0.1211840               3.2976
        16                          0.1449367               3.9439
        17                          0.1798030               4.8927
        18                          0.1865771               5.0770
        19                          0.2752999               7.4913
        20                          0.6476102              17.6224
      -------------------------------------------------------------
                  HL-Gap            0.1899406 Eh            5.1685 eV

     #   Z          covCN         q      C6AA      α(0)
     1   1 H        0.925     0.074     2.041     2.234
     2   6 C        3.655     0.023    20.490     6.498
     3   8 O        1.703    -0.237    17.932     5.717
     4   6 C        2.666     0.337    21.272     7.547
     5   1 H        0.924     0.077     2.007     2.215
     6   1 H        0.924     0.067     2.115     2.274
     7   8 O        0.856    -0.373    21.157     6.167
     8   1 H        0.923     0.032     2.558     2.501

Wiberg/Mayer (AO) data.
largest (>0.10) Wiberg bond orders for each atom

     #   Z sym  total        # sym  WBO       # sym  WBO       # sym  WBO
 ---------------------------------------------------------------------------
     1   1 H    0.995 --     2 C    0.980
     2   6 C    3.918 --     1 H    0.980     5 H    0.976     6 H    0.976
                             3 O    0.948
     3   8 O    2.345 --     4 C    1.179     2 C    0.948     7 O    0.197
     4   6 C    3.922 --     7 O    1.800     3 O    1.179     8 H    0.915
     5   1 H    0.994 --     2 C    0.976
     6   1 H    0.995 --     2 C    0.976
     7   8 O    2.070 --     4 C    1.800     3 O    0.197
     8   1 H    0.999 --     4 C    0.915
 ---------------------------------------------------------------------------

molecular dipole:
                 x           y           z       tot (Debye)
 q only:       -0.718       0.447      -0.137
   full:       -0.694       0.562      -0.208       2.330

           -------------------------------------------------
          | TOTAL ENERGY              -14.443367408500 Eh   |
          | GRADIENT NORM               0.000267038789 Eh/α |
          | HOMO-LUMO GAP               5.168545529204 eV   |
           -------------------------------------------------

 * finished run on 2023/11/18 at 08:07:32.109
