                               Psi4 1.6 release

  ==> Input File <==

--------------------------------------------------------------------------
molecule {
0 1
 H   -1.501106   -0.607939   -0.167338
 C   -1.340606    0.165992    0.585142
 O    0.013544    0.612072    0.540801
 C    0.815191    0.054900   -0.348353
 H   -1.537066   -0.229175    1.581505
 H   -1.987805    1.021123    0.391723
 O    0.538072   -0.797165   -1.138763
 H    1.814716    0.510285   -0.247454
}
memory 20GB
set_num_threads(5)
psi4_io.set_default_path("/scratch/liuchw/Psi4-35_38_Index_0-farH_in17")
set freeze_core True
E, wfn = energy('wb97x-d/6-311+G*',return_wfn=True)
oeprop(wfn,"WIBERG_LOWDIN_INDICES")
clean()
--------------------------------------------------------------------------

    Molecular point group: c1

    Geometry (in Angstrom), charge = 0, multiplicity = 1:

       Center              X                  Y                   Z               Mass
    ------------   -----------------  -----------------  -----------------  -----------------
         H           -1.489138241219    -0.614434781491    -0.081497357245     1.007825032230
         C           -1.328638241219     0.159496218509     0.670982642755    12.000000000000
         O            0.025511758781     0.605576218509     0.626641642755    15.994914619570
         C            0.827158758781     0.048404218509    -0.262512357245    12.000000000000
         H           -1.525098241219    -0.235670781491     1.667345642755     1.007825032230
         H           -1.975837241219     1.014627218509     0.477563642755     1.007825032230
         O            0.550039758781    -0.803660781491    -1.052922357245    15.994914619570
         H            1.826683758781     0.503789218509    -0.161613357245     1.007825032230

  Charge       = 0
  Multiplicity = 1
  Basis Set: 6-311+G*
    Blend: 6-311+G*
  Basis Set: (6-311+G* AUX)
    Blend: HEAVY-AUG-CC-PVTZ-JKFIT

    Orbital Energies [Eh]
    ---------------------

    Doubly Occupied:

       1A    -19.311145     2A    -19.247585     3A    -10.421680
       4A    -10.344231     5A     -1.233044     6A     -1.142645
       7A     -0.853198     8A     -0.697450     9A     -0.638562
      10A     -0.589020    11A     -0.577101    12A     -0.520151
      13A     -0.501973    14A     -0.452992    15A     -0.402978
      16A     -0.381470

  @DF-RKS Final Energy:  -229.05167460214693

   => Energetics <=

    Nuclear Repulsion Energy =            122.7515801140262113
    One-Electron Energy =                -555.0429612955592802
    Two-Electron Energy =                 223.7323902860436249
    DFT Exchange-Correlation Energy =     -20.4911716886060482
    Empirical Dispersion Energy =          -0.0015120180514203
    VV10 Nonlocal Energy =                  0.0000000000000000
    Total Energy =                       -229.0516746021469316
 Dipole X            :          2.5944805           -2.9628160           -0.3683356
 Dipole Y            :         -0.1925842            0.6255693            0.4329851
 Dipole Z            :         -1.1860364            1.7808298            0.5947934
 Magnitude           :                                                    0.8227553
*** Psi4 exiting successfully. Buy a developer a beer!
