                               Psi4 1.6 release

  ==> Input File <==

--------------------------------------------------------------------------
molecule {
0 1
H 0.997937242707 0.308778154082 -1.903576961728
N 0.820413169686 -0.224545975516 -1.054765582114
C -0.475924549372 -0.008757716274 -0.504109051449
C -1.456610733187 -1.1063087619 -0.669422911109
C 1.938857213551 -0.263197556109 -0.202879040229
C -0.839314087011 1.175919993376 0.052533901309
C -2.087963242726 1.532578341518 0.693808718102
N -0.715600857708 3.331908933802 0.777588311039
C 0.038111763721 2.396548668913 0.080861658512
C -1.965812402132 2.815126659906 1.118257558417
C -1.497917237857 -2.179116479176 0.230451969775
C -2.389801291285 -1.046597704267 -1.712236647812
C -2.442613902794 -3.191458448571 0.070429386975
C -3.329502735927 -2.064084872299 -1.872877725036
C -3.360436663532 -3.135392962779 -0.979618611652
C 1.814645349464 -0.490487920548 1.173683863841
C 3.219989851801 -0.152930980768 -0.75944318054
C 2.953706600161 -0.594745981176 1.970698133935
C 4.350029922874 -0.253767275177 0.044767090154
C 4.22722328806 -0.483135142134 1.416033991131
H -0.406808159301 4.285900536509 0.910372291022
O 1.140442443682 2.589355152341 -0.424191471515
H -0.77430512476 -2.228923352823 1.040463532002
H -2.370729541346 -0.202205199274 -2.398172622837
H -2.468189296908 -4.021623225682 0.77198965332
H -4.045712467318 -2.014264917538 -2.689364457551
H -4.09556681058 -3.926438409158 -1.103328517272
H 0.830463250674 -0.555985877545 1.628668420404
H 3.323931371044 0.027137617568 -1.827812029728
H 2.838198769701 -0.7680848951 3.038249300979
H 5.334242701214 -0.15486048671 -0.406919091126
H -2.937586237334 0.882308167506 0.84774974248
H -2.675198080951 3.427203342608 1.661110959571
H 5.110798163953 -0.562850658801 2.043059612999
no_reorient
}
memory 20GB
set_num_threads(5)
psi4_io.set_default_path("/scratch/liuchw/Psi4-1_7_Index_0-farH_in17")
set freeze_core True
set PROPERTIES_ORIGIN ["COM"]
set cubeprop_tasks ['esp']
set basis 6-311G**
E, wfn = properties('mp2',properties=['dipole'],return_wfn=True)
cubeprop(wfn)
fchk(wfn, "1_7_Index_0-dma.fchk")
clean()
--------------------------------------------------------------------------

    Molecular point group: c1
  Charge       = 0
  Multiplicity = 1
  Basis Set: 6-311G**
    Blend: 6-311G**
  Basis Set: (6-311G** AUX)
    Blend: CC-PVTZ-JKFIT

    Orbital Energies [Eh]
    ---------------------

    Doubly Occupied:

       1A    -20.524389     2A    -15.600790     3A    -15.563930
       4A    -11.361013     5A    -11.301024     6A    -11.295227
       7A    -11.271158     8A    -11.252881     9A    -11.251992
      10A    -11.244054    11A    -11.243278    12A    -11.242706
      13A    -11.242065    14A    -11.241034    15A    -11.233781
      16A    -11.226408    17A    -11.225532    18A    -11.214275
      19A    -11.213998    20A    -11.210585    21A     -1.382215
      22A     -1.277516    23A     -1.252077    24A     -1.162811
      25A     -1.128274    26A     -1.088949    27A     -1.039325
      28A     -1.021566    29A     -1.002623    30A     -0.995466
      31A     -0.972928    32A     -0.903099    33A     -0.835171
      34A     -0.828659    35A     -0.819795    36A     -0.810927
      37A     -0.800112    38A     -0.747947    39A     -0.716707
      40A     -0.702218    41A     -0.695961    42A     -0.667696
      43A     -0.649897    44A     -0.643714    45A     -0.632659
      46A     -0.612350    47A     -0.609512    48A     -0.602762
      49A     -0.600596    50A     -0.595493    51A     -0.593052
      52A     -0.588055    53A     -0.572210    54A     -0.568706
      55A     -0.516980    56A     -0.507514    57A     -0.506357
      58A     -0.501925    59A     -0.495095    60A     -0.480316
      61A     -0.473855    62A     -0.440303    63A     -0.415049
      64A     -0.414560    65A     -0.342986    66A     -0.340782
      67A     -0.325520    68A     -0.302040    69A     -0.283452

  @DF-RHF Final Energy:  -835.82381237484162

   => Energetics <=

    Nuclear Repulsion Energy =           1428.6742459106267233
    One-Electron Energy =               -3974.1403094291972593
    Two-Electron Energy =                1709.6422511437290268
    Total Energy =                       -835.8238123748415092
  Basis Set: (6-311G** AUX)
    Blend: CC-PVTZ-RI
    Molecular point group: c1

    Geometry (in Angstrom), charge = 0, multiplicity = 1:

       Center              X                  Y                   Z               Mass
    ------------   -----------------  -----------------  -----------------  -----------------
         H            0.987560014727     0.328676345211    -1.875993708787     1.007825032230
         N            0.810035941706    -0.204647784387    -1.027182329173    14.003074004430
         C           -0.486301777352     0.011140474855    -0.476525798508    12.000000000000
         C           -1.466987961167    -1.086410570771    -0.641839658168    12.000000000000
         C            1.928479985571    -0.243299364980    -0.175295787288    12.000000000000
         C           -0.849691314991     1.195818184505     0.080117154250    12.000000000000
         C           -2.098340470706     1.552476532647     0.721391971043    12.000000000000
         N           -0.725978085688     3.351807124931     0.805171563980    14.003074004430
         C            0.027734535741     2.416446860042     0.108444911453    12.000000000000
         C           -1.976189630112     2.835024851035     1.145840811358    12.000000000000
         C           -1.508294465837    -2.159218288047     0.258035222716    12.000000000000
         C           -2.400178519265    -1.026699513138    -1.684653394871    12.000000000000
         C           -2.452991130774    -3.171560257442     0.098012639916    12.000000000000
         C           -3.339879963907    -2.044186681170    -1.845294472095    12.000000000000
         C           -3.370813891512    -3.115494771650    -0.952035358711    12.000000000000
         C            1.804268121484    -0.470589729419     1.201267116782    12.000000000000
         C            3.209612623821    -0.133032789639    -0.731859927599    12.000000000000
         C            2.943329372181    -0.574847790047     1.998281386876    12.000000000000
         C            4.339652694894    -0.233869084048     0.072350343095    12.000000000000
         C            4.216846060080    -0.463236951005     1.443617244072    12.000000000000
         H           -0.417185387281     4.305798727638     0.937955543963     1.007825032230
         O            1.130065215702     2.609253343470    -0.396608218574    15.994914619570
         H           -0.784682352740    -2.209025161694     1.068046784943     1.007825032230
         H           -2.381106769326    -0.182307008145    -2.370589369896     1.007825032230
         H           -2.478566524888    -4.001725034553     0.799572906261     1.007825032230
         H           -4.056089695298    -1.994366726409    -2.661781204610     1.007825032230
         H           -4.105944038560    -3.906540218029    -1.075745264331     1.007825032230
         H            0.820086022694    -0.536087686416     1.656251673345     1.007825032230
         H            3.313554143064     0.047035808697    -1.800228776787     1.007825032230
         H            2.827821541721    -0.748186703971     3.065832553920     1.007825032230
         H            5.323865473234    -0.134962295581    -0.379335838185     1.007825032230
         H           -2.947963465314     0.902206358635     0.875332995421     1.007825032230
         H           -2.685575308931     3.447101533737     1.688694212512     1.007825032230
         H            5.100420935973    -0.542952467672     2.070642865940     1.007825032230

  Basis Set: 6-311G**
    Blend: 6-311G**
  Basis Set: (6-311G** AUX)
    Blend: CC-PVTZ-JKFIT
	 Reference Energy          =    -835.8238123748416228 [Eh]
	 Singles Energy            =      -0.0000000000000000 [Eh]
	 Same-Spin Energy          =      -0.7737328865466871 [Eh]
	 Opposite-Spin Energy      =      -2.0931400034486733 [Eh]
	 Correlation Energy        =      -2.8668728899953604 [Eh]
	 Total Energy              =    -838.6906852648369295 [Eh]

	 ================> DF-SCS-MP2 Energies <==================
	-----------------------------------------------------------
	 SCS Same-Spin Scale       =       0.3333333333333333 [-]
	 SCS Opposite-Spin Scale   =       1.2000000000000000 [-]
	 SCS Same-Spin Energy      =      -0.2579109621822290 [Eh]
	 SCS Opposite-Spin Energy  =      -2.5117680041384078 [Eh]
	 SCS Correlation Energy    =      -2.7696789663206367 [Eh]
	 SCS Total Energy          =    -838.5934913411622347 [Eh]
	-----------------------------------------------------------

 Dipole X            :         -0.0119419           -1.3858365           -1.3977783
 Dipole Y            :          5.4478627           -4.8951952            0.5526676
 Dipole Z            :         -1.5936273            1.8724175            0.2787903
 Magnitude           :                                                    1.5287085
  Basis Set: 6-311G**
    Blend: 6-311G**
*** Psi4 exiting successfully. Buy a developer a beer!
