                               Psi4 1.6 release

  ==> Input File <==

--------------------------------------------------------------------------
molecule {
0 1
H 0.997937242707 0.308778154082 -1.903576961728
N 0.820413169686 -0.224545975516 -1.054765582114
C -0.475924549372 -0.008757716274 -0.504109051449
C -1.456610733187 -1.1063087619 -0.669422911109
C 1.938857213551 -0.263197556109 -0.202879040229
C -0.839314087011 1.175919993376 0.052533901309
C -2.087963242726 1.532578341518 0.693808718102
N -0.715600857708 3.331908933802 0.777588311039
C 0.038111763721 2.396548668913 0.080861658512
C -1.965812402132 2.815126659906 1.118257558417
C -1.497917237857 -2.179116479176 0.230451969775
C -2.389801291285 -1.046597704267 -1.712236647812
C -2.442613902794 -3.191458448571 0.070429386975
C -3.329502735927 -2.064084872299 -1.872877725036
C -3.360436663532 -3.135392962779 -0.979618611652
C 1.814645349464 -0.490487920548 1.173683863841
C 3.219989851801 -0.152930980768 -0.75944318054
C 2.953706600161 -0.594745981176 1.970698133935
C 4.350029922874 -0.253767275177 0.044767090154
C 4.22722328806 -0.483135142134 1.416033991131
H -0.406808159301 4.285900536509 0.910372291022
O 1.140442443682 2.589355152341 -0.424191471515
H -0.77430512476 -2.228923352823 1.040463532002
H -2.370729541346 -0.202205199274 -2.398172622837
H -2.468189296908 -4.021623225682 0.77198965332
H -4.045712467318 -2.014264917538 -2.689364457551
H -4.09556681058 -3.926438409158 -1.103328517272
H 0.830463250674 -0.555985877545 1.628668420404
H 3.323931371044 0.027137617568 -1.827812029728
H 2.838198769701 -0.7680848951 3.038249300979
H 5.334242701214 -0.15486048671 -0.406919091126
H -2.937586237334 0.882308167506 0.84774974248
H -2.675198080951 3.427203342608 1.661110959571
H 5.110798163953 -0.562850658801 2.043059612999
}
memory 20GB
set_num_threads(5)
psi4_io.set_default_path("/scratch/liuchw/Psi4-1_7_Index_0-farH_in17")
set maxiter 500
set freeze_core True
set PROPERTIES_ORIGIN ["COM"]
set cubeprop_tasks ['esp']
set basis aug-cc-pVTZ
E, wfn = properties('mp2',properties=['dipole','GRID_ESP','WIBERG_LOWDIN_INDICES','MULLIKEN_CHARGES'],return_wfn=True)
cubeprop(wfn)
fchk(wfn, "1_7_Index_0-esp.fchk")
clean()
--------------------------------------------------------------------------

    Molecular point group: c1
  Charge       = 0
  Multiplicity = 1
  Basis Set: AUG-CC-PVTZ
    Blend: AUG-CC-PVTZ
  Basis Set: (AUG-CC-PVTZ AUX)
    Blend: AUG-CC-PVTZ-JKFIT

    Orbital Energies [Eh]
    ---------------------

    Doubly Occupied:

       1A    -20.531267     2A    -15.605867     3A    -15.569407
       4A    -11.362554     5A    -11.303582     6A    -11.296712
       7A    -11.272969     8A    -11.254347     9A    -11.253898
      10A    -11.246066    11A    -11.245364    12A    -11.244751
      13A    -11.244146    14A    -11.242995    15A    -11.236415
      16A    -11.228441    17A    -11.227506    18A    -11.216526
      19A    -11.216116    20A    -11.212642    21A     -1.384195
      22A     -1.279254    23A     -1.254324    24A     -1.164453
      25A     -1.129853    26A     -1.090635    27A     -1.040871
      28A     -1.023117    29A     -1.004070    30A     -0.996860
      31A     -0.974428    32A     -0.904621    33A     -0.836890
      34A     -0.830298    35A     -0.821426    36A     -0.812635
      37A     -0.801855    38A     -0.749613    39A     -0.718451
      40A     -0.703758    41A     -0.697669    42A     -0.669392
      43A     -0.651548    44A     -0.645605    45A     -0.634527
      46A     -0.614668    47A     -0.611707    48A     -0.605215
      49A     -0.602350    50A     -0.597141    51A     -0.594558
      52A     -0.589658    53A     -0.573400    54A     -0.570610
      55A     -0.519793    56A     -0.509983    57A     -0.508373
      58A     -0.503835    59A     -0.496993    60A     -0.481924
      61A     -0.478043    62A     -0.443602    63A     -0.418328
      64A     -0.417578    65A     -0.345383    66A     -0.343398
      67A     -0.327874    68A     -0.304999    69A     -0.286351

  @DF-RHF Final Energy:  -835.92411187575931

   => Energetics <=

    Nuclear Repulsion Energy =           1428.6742459106267233
    One-Electron Energy =               -3974.0413516633393556
    Two-Electron Energy =                1709.4429938769533237
    Total Energy =                       -835.9241118757593085
  Basis Set: (AUG-CC-PVTZ AUX)
    Blend: AUG-CC-PVTZ-RI
    Molecular point group: c1

    Geometry (in Angstrom), charge = 0, multiplicity = 1:

       Center              X                  Y                   Z               Mass
    ------------   -----------------  -----------------  -----------------  -----------------
         H            0.987560014727     0.328676345211    -1.875993708787     1.007825032230
         N            0.810035941706    -0.204647784387    -1.027182329173    14.003074004430
         C           -0.486301777352     0.011140474855    -0.476525798508    12.000000000000
         C           -1.466987961167    -1.086410570771    -0.641839658168    12.000000000000
         C            1.928479985571    -0.243299364980    -0.175295787288    12.000000000000
         C           -0.849691314991     1.195818184505     0.080117154250    12.000000000000
         C           -2.098340470706     1.552476532647     0.721391971043    12.000000000000
         N           -0.725978085688     3.351807124931     0.805171563980    14.003074004430
         C            0.027734535741     2.416446860042     0.108444911453    12.000000000000
         C           -1.976189630112     2.835024851035     1.145840811358    12.000000000000
         C           -1.508294465837    -2.159218288047     0.258035222716    12.000000000000
         C           -2.400178519265    -1.026699513138    -1.684653394871    12.000000000000
         C           -2.452991130774    -3.171560257442     0.098012639916    12.000000000000
         C           -3.339879963907    -2.044186681170    -1.845294472095    12.000000000000
         C           -3.370813891512    -3.115494771650    -0.952035358711    12.000000000000
         C            1.804268121484    -0.470589729419     1.201267116782    12.000000000000
         C            3.209612623821    -0.133032789639    -0.731859927599    12.000000000000
         C            2.943329372181    -0.574847790047     1.998281386876    12.000000000000
         C            4.339652694894    -0.233869084048     0.072350343095    12.000000000000
         C            4.216846060080    -0.463236951005     1.443617244072    12.000000000000
         H           -0.417185387281     4.305798727638     0.937955543963     1.007825032230
         O            1.130065215702     2.609253343470    -0.396608218574    15.994914619570
         H           -0.784682352740    -2.209025161694     1.068046784943     1.007825032230
         H           -2.381106769326    -0.182307008145    -2.370589369896     1.007825032230
         H           -2.478566524888    -4.001725034553     0.799572906261     1.007825032230
         H           -4.056089695298    -1.994366726409    -2.661781204610     1.007825032230
         H           -4.105944038560    -3.906540218029    -1.075745264331     1.007825032230
         H            0.820086022694    -0.536087686416     1.656251673345     1.007825032230
         H            3.313554143064     0.047035808697    -1.800228776787     1.007825032230
         H            2.827821541721    -0.748186703971     3.065832553920     1.007825032230
         H            5.323865473234    -0.134962295581    -0.379335838185     1.007825032230
         H           -2.947963465314     0.902206358635     0.875332995421     1.007825032230
         H           -2.685575308931     3.447101533737     1.688694212512     1.007825032230
         H            5.100420935973    -0.542952467672     2.070642865940     1.007825032230

  Basis Set: AUG-CC-PVTZ
    Blend: AUG-CC-PVTZ
  Basis Set: (AUG-CC-PVTZ AUX)
    Blend: AUG-CC-PVTZ-JKFIT
	 Reference Energy          =    -835.9241118757593085 [Eh]
	 Singles Energy            =      -0.0000000000000000 [Eh]
	 Same-Spin Energy          =      -0.8704984132164566 [Eh]
	 Opposite-Spin Energy      =      -2.4933083637469551 [Eh]
	 Correlation Energy        =      -3.3638067769634117 [Eh]
	 Total Energy              =    -839.2879186527227375 [Eh]

	 ================> DF-SCS-MP2 Energies <==================
	-----------------------------------------------------------
	 SCS Same-Spin Scale       =       0.3333333333333333 [-]
	 SCS Opposite-Spin Scale   =       1.2000000000000000 [-]
	 SCS Same-Spin Energy      =      -0.2901661377388188 [Eh]
	 SCS Opposite-Spin Energy  =      -2.9919700364963462 [Eh]
	 SCS Correlation Energy    =      -3.2821361742351649 [Eh]
	 SCS Total Energy          =    -839.2062480499944286 [Eh]
	-----------------------------------------------------------

 Dipole X            :         -0.0743532           -1.3858365           -1.4601897
 Dipole Y            :          5.3583317           -4.8951952            0.4631365
 Dipole Z            :         -1.5903914            1.8724175            0.2820262
 Magnitude           :                                                    1.5576226

  Mulliken Charges: (a.u.)
   Center  Symbol    Alpha    Beta     Spin     Total
       1     H     0.54469  0.54469  0.00000 -0.08938
       2     N     3.97082  3.97082  0.00000 -0.94164
       3     C     2.54932  2.54932  0.00000  0.90136
       4     C     2.31977  2.31977  0.00000  1.36046
       5     C     2.32976  2.32976  0.00000  1.34048
       6     C     2.27326  2.27326  0.00000  1.45349
       7     C     3.17584  3.17584  0.00000 -0.35169
       8     N     3.51838  3.51838  0.00000 -0.03675
       9     C     3.01170  3.01170  0.00000 -0.02340
      10     C     3.53059  3.53059  0.00000 -1.06119
      11     C     3.40718  3.40718  0.00000 -0.81435
      12     C     3.43693  3.43693  0.00000 -0.87385
      13     C     3.43747  3.43747  0.00000 -0.87495
      14     C     3.30519  3.30519  0.00000 -0.61038
      15     C     3.08271  3.08271  0.00000 -0.16542
      16     C     3.25111  3.25111  0.00000 -0.50223
      17     C     3.46568  3.46568  0.00000 -0.93135
      18     C     3.50330  3.50330  0.00000 -1.00660
      19     C     3.28106  3.28106  0.00000 -0.56212
      20     C     3.12438  3.12438  0.00000 -0.24875
      21     H     0.44838  0.44838  0.00000  0.10324
      22     O     4.41824  4.41824  0.00000 -0.83648
      23     H     0.40067  0.40067  0.00000  0.19865
      24     H     0.44053  0.44053  0.00000  0.11894
      25     H     0.26421  0.26421  0.00000  0.47157
      26     H     0.27800  0.27800  0.00000  0.44400
      27     H     0.24280  0.24280  0.00000  0.51440
      28     H     0.30477  0.30477  0.00000  0.39046
      29     H     0.34667  0.34667  0.00000  0.30666
      30     H     0.36367  0.36367  0.00000  0.27266
      31     H     0.30706  0.30706  0.00000  0.38587
      32     H     0.29398  0.29398  0.00000  0.41204
      33     H     0.16977  0.16977  0.00000  0.66045
      34     H     0.20210  0.20210  0.00000  0.59581

   Total alpha = 69.00000, Total beta = 69.00000, Total charge = -0.00000

  Basis Set: AUG-CC-PVTZ
    Blend: AUG-CC-PVTZ
*** Psi4 exiting successfully. Buy a developer a beer!
