   * xtb version 6.5.0 (97a52f5) compiled by 'conda@d2599ee0d4f4' on 2022-05-15
          program call               : /home/liuchw/anaconda3/envs/xtbenv/bin/xtb --gfn 2 --chrg 1 --uhf 0 32_40_Index_0-opt-2-3-063_preQMOPTprefit_xyzformat.xyz --opt --input xtb-opt-2-3-063_constr.txt

   ID    Z sym.   atoms
    1    1 H      1, 4-6, 9-14
    2    6 C      2, 7, 8
    3    7 N      3
constraining angle 5 2 3 4 to   62.9393548°, actual value:   62.9393548°
constraining angle 5 2 3 7 to  306.0561747°, actual value:  -53.9438253°
constraining angle 10 7 3 4 to  300.9632835°, actual value:  -59.0367165°
constraining angle 10 7 3 2 to   58.0368497°, actual value:   58.0368497°
constraining angle 11 8 3 4 to   62.9433119°, actual value:   62.9433119°
constraining angle 11 8 3 2 to  306.0517730°, actual value:  -53.9482270°

          :  Hamiltonian                  GFN2-xTB          :
 * total energy  :   -14.0157279 Eh     change       -0.2677680E-10 Eh
 * total energy  :   -14.0183116 Eh     change       -0.2583606E-02 Eh
 * total energy  :   -14.0187937 Eh     change       -0.4821031E-03 Eh
 * total energy  :   -14.0187867 Eh     change        0.6966783E-05 Eh
 * total energy  :   -14.0188061 Eh     change       -0.1938038E-04 Eh
 * total energy  :   -14.0188059 Eh     change        0.1257142E-06 Eh
 * total energy  :   -14.0188067 Eh     change       -0.7520250E-06 Eh
   *** GEOMETRY OPTIMIZATION CONVERGED AFTER 7 ITERATIONS ***

 final structure:
================
14
 xtb: 6.5.0 (97a52f5)
H            1.99836290647570       -0.04015994331716       -0.75603050376411
C            1.12308781040231        0.59038390993220       -0.61372418185619
N           -0.04811444218251       -0.22716016813709       -0.24711588534862
H           -0.18326342600802       -0.91501980821374       -0.99818995070392
H            0.93111101989879        1.13903682774642       -1.53394717378970
H            1.33258766164780        1.30674765926390        0.17955997676540
C           -1.27636626413959        0.58343150895885       -0.17408919210681
C            0.19430559902008       -0.96770354211716        1.00343780267943
H           -1.17003396465057        1.34318238305784        0.59901006244506
H           -1.46315217354720        1.07697120935360       -1.12583639886642
H            1.11017360916017       -1.55058359886771        0.92813823723257
H            0.29610956333800       -0.26575184519895        1.82996294268608
H           -2.13138188720570       -0.04478749667278        0.06858113651413
H           -0.63483001220925       -1.63981411578824        1.21625114811307

          :  Hamiltonian                  GFN2-xTB          :
         :: total energy             -14.018806695895 Eh    ::
         :: gradient norm              0.000129100110 Eh/a0 ::
         :: HOMO-LUMO gap             11.342174538639 eV    ::
         :: SCC energy               -14.217420700427 Eh    ::
         :: -> dispersion             -0.005288581540 Eh    ::
         :: repulsion energy           0.198591513926 Eh    ::

    * Orbital Energies and Occupations

         #    Occupation            Energy/Eh            Energy/eV
      -------------------------------------------------------------
         1        2.0000           -0.8928744             -24.2964
         2        2.0000           -0.8460753             -23.0229
         3        2.0000           -0.8454981             -23.0072
         4        2.0000           -0.8121217             -22.0990
         5        2.0000           -0.7640565             -20.7910
         6        2.0000           -0.7411305             -20.1672
         7        2.0000           -0.7410372             -20.1646
         8        2.0000           -0.6809901             -18.5307
         9        2.0000           -0.6804103             -18.5149
        10        2.0000           -0.6670527             -18.1514
        11        2.0000           -0.6664231             -18.1343
        12        2.0000           -0.6616246             -18.0037
        13        2.0000           -0.6600712             -17.9615 (HOMO)
        14                         -0.2432540              -6.6193 (LUMO)
        15                         -0.1543071              -4.1989
        16                         -0.1513075              -4.1173
        17                         -0.1413008              -3.8450
        18                         -0.0567122              -1.5432
        19                         -0.0025193              -0.0686
        20                         -0.0015097              -0.0411
        21                          0.0204196               0.5556
        22                          0.0222641               0.6058
        23                          0.0383033               1.0423
        24                          0.0396859               1.0799
       ...                                ...                  ...
        26                          0.0524204               1.4264
      -------------------------------------------------------------
                  HL-Gap            0.4168172 Eh           11.3422 eV

     #   Z          covCN         q      C6AA      α(0)
     1   1 H        0.925     0.109     1.709     2.044
     2   6 C        3.701    -0.103    22.640     6.804
     3   7 N        3.577     0.082    19.821     6.612
     4   1 H        0.859     0.234     0.950     1.527
     5   1 H        0.925     0.109     1.704     2.041
     6   1 H        0.925     0.113     1.668     2.020
     7   6 C        3.699    -0.103    22.638     6.805
     8   6 C        3.701    -0.103    22.635     6.803
     9   1 H        0.925     0.113     1.668     2.020
    10   1 H        0.925     0.109     1.708     2.044
    11   1 H        0.925     0.110     1.700     2.039
    12   1 H        0.925     0.113     1.669     2.020
    13   1 H        0.925     0.109     1.703     2.041
    14   1 H        0.925     0.109     1.709     2.044

Wiberg/Mayer (AO) data.
largest (>0.10) Wiberg bond orders for each atom

     #   Z sym  total        # sym  WBO       # sym  WBO       # sym  WBO
 ---------------------------------------------------------------------------
     1   1 H    0.988 --     2 C    0.974
     2   6 C    3.912 --     1 H    0.974     5 H    0.974     6 H    0.974
                             3 N    0.957
     3   7 N    3.788 --     8 C    0.958     7 C    0.958     2 C    0.957
                             4 H    0.914
     4   1 H    0.945 --     3 N    0.914
     5   1 H    0.988 --     2 C    0.974
     6   1 H    0.987 --     2 C    0.974
     7   6 C    3.912 --    10 H    0.974    13 H    0.974     9 H    0.974
                             3 N    0.958
     8   6 C    3.912 --    14 H    0.975    11 H    0.974    12 H    0.974
                             3 N    0.958
     9   1 H    0.987 --     7 C    0.974
    10   1 H    0.988 --     7 C    0.974
    11   1 H    0.988 --     8 C    0.974
    12   1 H    0.987 --     8 C    0.974
    13   1 H    0.988 --     7 C    0.974
    14   1 H    0.988 --     8 C    0.975
 ---------------------------------------------------------------------------

molecular dipole:
                 x           y           z       tot (Debye)
 q only:       -0.038      -0.188      -0.209
   full:       -0.063      -0.311      -0.344       1.190

           -------------------------------------------------
          | TOTAL ENERGY              -14.018806695895 Eh   |
          | GRADIENT NORM               0.000129100110 Eh/α |
          | HOMO-LUMO GAP              11.342174538639 eV   |
           -------------------------------------------------

 * finished run on 2023/11/18 at 08:07:31.380
