   * xtb version 6.5.0 (97a52f5) compiled by 'conda@d2599ee0d4f4' on 2022-05-15
          program call               : /home/liuchw/anaconda3/envs/xtbenv/bin/xtb --gfn 2 --chrg 1 --uhf 0 32_40_Index_0-opt-2-3-333_preQMOPTprefit_xyzformat.xyz --opt --input xtb-opt-2-3-333_constr.txt

   ID    Z sym.   atoms
    1    1 H      1, 4-6, 9-14
    2    6 C      2, 7, 8
    3    7 N      3
constraining angle 5 2 3 4 to  332.9085193°, actual value:  -27.0914807°
constraining angle 5 2 3 7 to  216.0542373°, actual value: -143.9457627°
constraining angle 10 7 3 4 to  300.9415411°, actual value:  -59.0584589°
constraining angle 10 7 3 2 to   58.0627031°, actual value:   58.0627031°
constraining angle 11 8 3 4 to   62.9167831°, actual value:   62.9167831°
constraining angle 11 8 3 2 to  306.0818900°, actual value:  -53.9181100°

          :  Hamiltonian                  GFN2-xTB          :
 * total energy  :   -14.0131262 Eh     change       -0.1320011E-10 Eh
 * total energy  :   -14.0157384 Eh     change       -0.2612163E-02 Eh
 * total energy  :   -14.0162043 Eh     change       -0.4659086E-03 Eh
 * total energy  :   -14.0162133 Eh     change       -0.8946647E-05 Eh
 * total energy  :   -14.0162133 Eh     change       -0.3653960E-07 Eh
 * total energy  :   -14.0162149 Eh     change       -0.1602991E-05 Eh
   *** GEOMETRY OPTIMIZATION CONVERGED AFTER 6 ITERATIONS ***

 final structure:
================
14
 xtb: 6.5.0 (97a52f5)
H            1.72428893942072        0.79923918455283        0.26498149193728
C            1.11260846631931        0.62799573388852       -0.61758366599642
N           -0.08318382505005       -0.17560494219045       -0.26967516872768
H           -0.32217267238846       -0.73551423164800       -1.09620541289168
H            1.70274410681057        0.13127069119337       -1.38437232653062
H            0.81179911350139        1.59523230123632       -1.01739929556983
C           -1.25381007400852        0.66976350220921        0.02712652191309
C            0.20413594703010       -1.11719073969212        0.82703153074141
H           -1.04136383132252        1.29956548594736        0.89037489975838
H           -1.48834896323607        1.30724460509468       -0.82290454605767
H            1.06882478081339       -1.73033247740017        0.57942823564117
H            0.41289539297998       -0.56361824654544        1.74133287633771
H           -2.12081398283085        0.05107173476691        0.25160683669945
H           -0.64900741803899       -1.77034860141301        1.00226502274540

          :  Hamiltonian                  GFN2-xTB          :
         :: total energy             -14.016214902590 Eh    ::
         :: gradient norm              0.000976568496 Eh/a0 ::
         :: HOMO-LUMO gap             11.190377104671 eV    ::
         :: SCC energy               -14.214483567548 Eh    ::
         :: -> dispersion             -0.005278342907 Eh    ::
         :: repulsion energy           0.198254803132 Eh    ::

    * Orbital Energies and Occupations

         #    Occupation            Energy/Eh            Energy/eV
      -------------------------------------------------------------
         1        2.0000           -0.8918923             -24.2696
         2        2.0000           -0.8455591             -23.0088
         3        2.0000           -0.8446818             -22.9850
         4        2.0000           -0.8112212             -22.0745
         5        2.0000           -0.7639953             -20.7894
         6        2.0000           -0.7408046             -20.1583
         7        2.0000           -0.7403181             -20.1451
         8        2.0000           -0.6832067             -18.5910
         9        2.0000           -0.6820769             -18.5603
        10        2.0000           -0.6663497             -18.1323
        11        2.0000           -0.6656067             -18.1121
        12        2.0000           -0.6595091             -17.9462
        13        2.0000           -0.6576741             -17.8962 (HOMO)
        14                         -0.2464353              -6.7058 (LUMO)
        15                         -0.1587753              -4.3205
        16                         -0.1540839              -4.1928
        17                         -0.1437454              -3.9115
        18                         -0.0544853              -1.4826
        19                         -0.0060509              -0.1647
        20                         -0.0009266              -0.0252
        21                          0.0050196               0.1366
        22                          0.0251871               0.6854
        23                          0.0338429               0.9209
        24                          0.0362528               0.9865
       ...                                ...                  ...
        26                          0.0703907               1.9154
      -------------------------------------------------------------
                  HL-Gap            0.4112388 Eh           11.1904 eV

     #   Z          covCN         q      C6AA      α(0)
     1   1 H        0.925     0.116     1.646     2.006
     2   6 C        3.697    -0.105    22.693     6.814
     3   7 N        3.576     0.080    19.848     6.617
     4   1 H        0.859     0.234     0.949     1.526
     5   1 H        0.925     0.106     1.732     2.058
     6   1 H        0.925     0.113     1.672     2.022
     7   6 C        3.697    -0.103    22.639     6.806
     8   6 C        3.699    -0.102    22.627     6.803
     9   1 H        0.925     0.114     1.665     2.018
    10   1 H        0.925     0.108     1.715     2.048
    11   1 H        0.925     0.111     1.691     2.034
    12   1 H        0.925     0.113     1.674     2.024
    13   1 H        0.925     0.109     1.706     2.042
    14   1 H        0.925     0.108     1.714     2.047

Wiberg/Mayer (AO) data.
largest (>0.10) Wiberg bond orders for each atom

     #   Z sym  total        # sym  WBO       # sym  WBO       # sym  WBO
 ---------------------------------------------------------------------------
     1   1 H    0.987 --     2 C    0.974
     2   6 C    3.910 --     5 H    0.978     1 H    0.974     6 H    0.973
                             3 N    0.952
     3   7 N    3.787 --     7 C    0.959     8 C    0.959     2 C    0.952
                             4 H    0.916
     4   1 H    0.945 --     3 N    0.916
     5   1 H    0.989 --     2 C    0.978
     6   1 H    0.987 --     2 C    0.973
     7   6 C    3.913 --     9 H    0.974    10 H    0.974    13 H    0.974
                             3 N    0.959
     8   6 C    3.912 --    14 H    0.974    11 H    0.974    12 H    0.974
                             3 N    0.959
     9   1 H    0.987 --     7 C    0.974
    10   1 H    0.988 --     7 C    0.974
    11   1 H    0.988 --     8 C    0.974
    12   1 H    0.987 --     8 C    0.974
    13   1 H    0.988 --     7 C    0.974
    14   1 H    0.988 --     8 C    0.974
 ---------------------------------------------------------------------------

molecular dipole:
                 x           y           z       tot (Debye)
 q only:       -0.066      -0.136      -0.231
   full:       -0.112      -0.235      -0.383       1.178

           -------------------------------------------------
          | TOTAL ENERGY              -14.016214902590 Eh   |
          | GRADIENT NORM               0.000976568496 Eh/α |
          | HOMO-LUMO GAP              11.190377104671 eV   |
           -------------------------------------------------

 * finished run on 2023/11/18 at 08:09:40.776
