   * xtb version 6.5.0 (97a52f5) compiled by 'conda@d2599ee0d4f4' on 2022-05-15
          program call               : /home/liuchw/anaconda3/envs/xtbenv/bin/xtb --gfn 2 --chrg 1 --uhf 0 32_40_Index_0-opt-2-3-093_preQMOPTprefit_xyzformat.xyz --opt --input xtb-opt-2-3-093_constr.txt

   ID    Z sym.   atoms
    1    1 H      1, 4-6, 9-14
    2    6 C      2, 7, 8
    3    7 N      3
constraining angle 5 2 3 4 to   92.9072963°, actual value:   92.9072963°
constraining angle 5 2 3 7 to  336.0579185°, actual value:  -23.9420815°
constraining angle 10 7 3 4 to  300.9428521°, actual value:  -59.0571479°
constraining angle 10 7 3 2 to   58.0628672°, actual value:   58.0628672°
constraining angle 11 8 3 4 to   62.9170050°, actual value:   62.9170050°
constraining angle 11 8 3 2 to  306.0832652°, actual value:  -53.9167348°

          :  Hamiltonian                  GFN2-xTB          :
 * total energy  :   -14.0130856 Eh     change       -0.1610978E-10 Eh
 * total energy  :   -14.0157613 Eh     change       -0.2675781E-02 Eh
 * total energy  :   -14.0162523 Eh     change       -0.4909651E-03 Eh
 * total energy  :   -14.0162617 Eh     change       -0.9441676E-05 Eh
 * total energy  :   -14.0162612 Eh     change        0.5278855E-06 Eh
 * total energy  :   -14.0162633 Eh     change       -0.2090825E-05 Eh
 * total energy  :   -14.0162633 Eh     change        0.3303320E-07 Eh
 * total energy  :   -14.0162635 Eh     change       -0.2738538E-06 Eh
   *** GEOMETRY OPTIMIZATION CONVERGED AFTER 8 ITERATIONS ***

 final structure:
================
14
 xtb: 6.5.0 (97a52f5)
H            1.86467001626486       -0.00860131332706       -1.16901511437144
C            1.13856531957719        0.58129401795807       -0.61634310301192
N           -0.03650115403197       -0.23655005810051       -0.23405907230919
H           -0.14386332073637       -0.96502563667249       -0.94961376121082
H            0.83161539473959        1.43912193741296       -1.21054258910003
H            1.61933952639879        0.97090244888932        0.28066055275013
C           -1.28322497706819        0.54984099845745       -0.23372187490794
C            0.18044539966520       -0.92041631643379        1.05313756113627
H           -1.21069853284726        1.35111006206896        0.50089322831522
H           -1.45737922631331        0.98742329867375       -1.21462399800177
H            1.10387469451012       -1.49598680674444        1.02290431851514
H            0.24771392802373       -0.18510607097279        1.85359709566801
H           -2.13057757959798       -0.08318436737431        0.02344678537381
H           -0.64538348858438       -1.59605019383513        1.26928697115448

          :  Hamiltonian                  GFN2-xTB          :
         :: total energy             -14.016263541761 Eh    ::
         :: gradient norm              0.000062895818 Eh/a0 ::
         :: HOMO-LUMO gap             11.187551178600 eV    ::
         :: SCC energy               -14.214534304615 Eh    ::
         :: -> dispersion             -0.005279707882 Eh    ::
         :: repulsion energy           0.198257154971 Eh    ::

    * Orbital Energies and Occupations

         #    Occupation            Energy/Eh            Energy/eV
      -------------------------------------------------------------
         1        2.0000           -0.8919434             -24.2710
         2        2.0000           -0.8456845             -23.0122
         3        2.0000           -0.8445723             -22.9820
         4        2.0000           -0.8113376             -22.0776
         5        2.0000           -0.7638635             -20.7858
         6        2.0000           -0.7408503             -20.1596
         7        2.0000           -0.7404552             -20.1488
         8        2.0000           -0.6832798             -18.5930
         9        2.0000           -0.6820919             -18.5607
        10        2.0000           -0.6664151             -18.1341
        11        2.0000           -0.6656254             -18.1126
        12        2.0000           -0.6595819             -17.9481
        13        2.0000           -0.6576491             -17.8955 (HOMO)
        14                         -0.2465142              -6.7080 (LUMO)
        15                         -0.1579517              -4.2981
        16                         -0.1539683              -4.1897
        17                         -0.1438878              -3.9154
        18                         -0.0545968              -1.4857
        19                         -0.0063064              -0.1716
        20                         -0.0004840              -0.0132
        21                          0.0087831               0.2390
        22                          0.0238145               0.6480
        23                          0.0317899               0.8650
        24                          0.0343667               0.9352
       ...                                ...                  ...
        26                          0.0725511               1.9742
      -------------------------------------------------------------
                  HL-Gap            0.4111349 Eh           11.1876 eV

     #   Z          covCN         q      C6AA      α(0)
     1   1 H        0.925     0.107     1.723     2.053
     2   6 C        3.697    -0.106    22.697     6.814
     3   7 N        3.576     0.080    19.847     6.617
     4   1 H        0.859     0.234     0.948     1.526
     5   1 H        0.925     0.114     1.662     2.016
     6   1 H        0.925     0.114     1.664     2.017
     7   6 C        3.698    -0.103    22.638     6.805
     8   6 C        3.699    -0.102    22.630     6.804
     9   1 H        0.925     0.114     1.666     2.018
    10   1 H        0.925     0.108     1.713     2.047
    11   1 H        0.925     0.110     1.692     2.034
    12   1 H        0.925     0.112     1.675     2.024
    13   1 H        0.925     0.109     1.706     2.042
    14   1 H        0.925     0.108     1.713     2.047

Wiberg/Mayer (AO) data.
largest (>0.10) Wiberg bond orders for each atom

     #   Z sym  total        # sym  WBO       # sym  WBO       # sym  WBO
 ---------------------------------------------------------------------------
     1   1 H    0.989 --     2 C    0.978
     2   6 C    3.910 --     1 H    0.978     6 H    0.974     5 H    0.973
                             3 N    0.952
     3   7 N    3.787 --     7 C    0.959     8 C    0.959     2 C    0.952
                             4 H    0.916
     4   1 H    0.945 --     3 N    0.916
     5   1 H    0.987 --     2 C    0.973
     6   1 H    0.987 --     2 C    0.974
     7   6 C    3.913 --     9 H    0.974    10 H    0.974    13 H    0.974
                             3 N    0.959
     8   6 C    3.913 --    14 H    0.974    11 H    0.974    12 H    0.974
                             3 N    0.959
     9   1 H    0.987 --     7 C    0.974
    10   1 H    0.988 --     7 C    0.974
    11   1 H    0.988 --     8 C    0.974
    12   1 H    0.987 --     8 C    0.974
    13   1 H    0.988 --     7 C    0.974
    14   1 H    0.988 --     8 C    0.974
 ---------------------------------------------------------------------------

molecular dipole:
                 x           y           z       tot (Debye)
 q only:       -0.023      -0.193      -0.196
   full:       -0.043      -0.322      -0.321       1.162

           -------------------------------------------------
          | TOTAL ENERGY              -14.016263541761 Eh   |
          | GRADIENT NORM               0.000062895818 Eh/α |
          | HOMO-LUMO GAP              11.187551178600 eV   |
           -------------------------------------------------

 * finished run on 2023/11/18 at 08:07:46.266
