                               Psi4 1.6 release

  ==> Input File <==

--------------------------------------------------------------------------
molecule {
1 1
 H    1.039047    0.900696   -1.616280
 C    1.152912    0.554491   -0.590854
 N    0.001437   -0.277636   -0.195589
 H    0.002312   -1.103976   -0.806078
 H    1.223858    1.419525    0.066963
 H    2.076755   -0.015925   -0.515213
 C   -1.276349    0.422889   -0.413989
 C    0.138990   -0.744987    1.194975
 H   -1.312721    1.321237    0.200695
 H   -1.378777    0.709932   -1.458691
 H    1.092952   -1.250028    1.333402
 H    0.094954    0.106395    1.872785
 H   -2.112159   -0.219675   -0.143569
 H   -0.664612   -1.434168    1.447452
}
memory 20GB
set_num_threads(5)
psi4_io.set_default_path("/scratch/liuchw/Psi4-32_40_Index_0-farH_in17")
set freeze_core True
E, wfn = energy('wb97x-d/6-311+G*',return_wfn=True)
oeprop(wfn,"WIBERG_LOWDIN_INDICES")
clean()
--------------------------------------------------------------------------

    Molecular point group: c1

    Geometry (in Angstrom), charge = 1, multiplicity = 1:

       Center              X                  Y                   Z               Mass
    ------------   -----------------  -----------------  -----------------  -----------------
         H            1.034572239952     0.911708278707    -1.615068104981     1.007825032230
         C            1.148437239952     0.565503278707    -0.589642104981    12.000000000000
         N           -0.003037760048    -0.266623721293    -0.194377104981    14.003074004430
         H           -0.002162760048    -1.092963721293    -0.804866104981     1.007825032230
         H            1.219383239952     1.430537278707     0.068174895019     1.007825032230
         H            2.072280239952    -0.004912721293    -0.514001104981     1.007825032230
         C           -1.280823760048     0.433901278707    -0.412777104981    12.000000000000
         C            0.134515239952    -0.733974721293     1.196186895019    12.000000000000
         H           -1.317195760048     1.332249278707     0.201906895019     1.007825032230
         H           -1.383251760048     0.720944278707    -1.457479104981     1.007825032230
         H            1.088477239952    -1.239015721293     1.334613895019     1.007825032230
         H            0.090479239952     0.117407278707     1.873996895019     1.007825032230
         H           -2.116633760048    -0.208662721293    -0.142357104981     1.007825032230
         H           -0.669086760048    -1.423155721293     1.448663895019     1.007825032230

  Charge       = 1
  Multiplicity = 1
  Basis Set: 6-311+G*
    Blend: 6-311+G*
  Basis Set: (6-311+G* AUX)
    Blend: HEAVY-AUG-CC-PVTZ-JKFIT

    Orbital Energies [Eh]
    ---------------------

    Doubly Occupied:

       1A    -14.758592     2A    -10.515637     3A    -10.515598
       4A    -10.515559     5A     -1.324115     6A     -1.039938
       7A     -1.038731     8A     -0.963235     9A     -0.854104
      10A     -0.793670    11A     -0.793438    12A     -0.702783
      13A     -0.701706    14A     -0.676621    15A     -0.675783
      16A     -0.674882    17A     -0.669653

  @DF-RKS Final Energy:  -174.83053635802150

   => Energetics <=

    Nuclear Repulsion Energy =            147.8135503717580264
    One-Electron Energy =                -518.6087615823286114
    Two-Electron Energy =                 214.1132988568765541
    DFT Exchange-Correlation Energy =     -18.1416269294932704
    Empirical Dispersion Energy =          -0.0069970748341998
    VV10 Nonlocal Energy =                  0.0000000000000000
    Total Energy =                       -174.8305363580215044
 Dipole X            :         -0.0151215            0.0158159            0.0006943
 Dipole Y            :         -0.7943387            0.5108851           -0.2834536
 Dipole Z            :         -0.5784395            0.3695384           -0.2089010
 Magnitude           :                                                    0.3521165
*** Psi4 exiting successfully. Buy a developer a beer!
