   * xtb version 6.5.0 (97a52f5) compiled by 'conda@d2599ee0d4f4' on 2022-05-15
          program call               : /home/liuchw/anaconda3/envs/xtbenv/bin/xtb --gfn 2 --chrg 1 --uhf 0 32_40_Index_0-opt-2-3-303_preQMOPTprefit_xyzformat.xyz --opt --input xtb-opt-2-3-303_constr.txt

   ID    Z sym.   atoms
    1    1 H      1, 4-6, 9-14
    2    6 C      2, 7, 8
    3    7 N      3
constraining angle 5 2 3 4 to  302.9419044°, actual value:  -57.0580956°
constraining angle 5 2 3 7 to  186.0541994°, actual value: -173.9458006°
constraining angle 10 7 3 4 to  300.9664272°, actual value:  -59.0335728°
constraining angle 10 7 3 2 to   58.0339520°, actual value:   58.0339520°
constraining angle 11 8 3 4 to   62.9448065°, actual value:   62.9448065°
constraining angle 11 8 3 2 to  306.0484891°, actual value:  -53.9515109°

          :  Hamiltonian                  GFN2-xTB          :
 * total energy  :   -14.0157224 Eh     change       -0.1609735E-10 Eh
 * total energy  :   -14.0183052 Eh     change       -0.2582790E-02 Eh
 * total energy  :   -14.0187947 Eh     change       -0.4895336E-03 Eh
 * total energy  :   -14.0188024 Eh     change       -0.7672061E-05 Eh
 * total energy  :   -14.0188019 Eh     change        0.4798315E-06 Eh
 * total energy  :   -14.0188033 Eh     change       -0.1356447E-05 Eh
   *** GEOMETRY OPTIMIZATION CONVERGED AFTER 6 ITERATIONS ***

 final structure:
================
14
 xtb: 6.5.0 (97a52f5)
H            1.44867898285961        1.16160964835902        0.26752529751586
C            1.09407372047777        0.63853454700441       -0.61927205981863
N           -0.09747515847774       -0.16241264595426       -0.28263553297495
H           -0.36718591642598       -0.67395981129433       -1.13179437358335
H            1.89004150746382       -0.00263896050976       -0.99293987657790
H            0.85321549789103        1.37374591902875       -1.38514393877220
C           -1.23886010549814        0.69097470176593        0.09171210646158
C            0.21001071896988       -1.15459606188221        0.76244730641474
H           -0.98917771283777        1.27015921726229        0.97968408984995
H           -1.48107819303572        1.37787743725983       -0.71688407807848
H            1.06084686554412       -1.76553251204511        0.46728622026623
H            0.45569170116748       -0.64236078083965        1.69173297423370
H           -2.11400376072125        0.08075967730161        0.30714419412076
H           -0.64618313737713       -1.80338838545653        0.93714568094264

          :  Hamiltonian                  GFN2-xTB          :
         :: total energy             -14.018803291629 Eh    ::
         :: gradient norm              0.000318044210 Eh/a0 ::
         :: HOMO-LUMO gap             11.343489634456 eV    ::
         :: SCC energy               -14.217378656291 Eh    ::
         :: -> dispersion             -0.005288354024 Eh    ::
         :: repulsion energy           0.198553443671 Eh    ::

    * Orbital Energies and Occupations

         #    Occupation            Energy/Eh            Energy/eV
      -------------------------------------------------------------
         1        2.0000           -0.8928579             -24.2959
         2        2.0000           -0.8460472             -23.0221
         3        2.0000           -0.8455014             -23.0073
         4        2.0000           -0.8121015             -22.0984
         5        2.0000           -0.7640668             -20.7913
         6        2.0000           -0.7411196             -20.1669
         7        2.0000           -0.7410025             -20.1637
         8        2.0000           -0.6809124             -18.5286
         9        2.0000           -0.6804742             -18.5166
        10        2.0000           -0.6670027             -18.1501
        11        2.0000           -0.6664625             -18.1354
        12        2.0000           -0.6615314             -18.0012
        13        2.0000           -0.6601236             -17.9629 (HOMO)
        14                         -0.2432580              -6.6194 (LUMO)
        15                         -0.1543848              -4.2010
        16                         -0.1514309              -4.1206
        17                         -0.1412581              -3.8438
        18                         -0.0566733              -1.5422
        19                         -0.0026231              -0.0714
        20                         -0.0016253              -0.0442
        21                          0.0197712               0.5380
        22                          0.0225279               0.6130
        23                          0.0389167               1.0590
        24                          0.0394707               1.0741
       ...                                ...                  ...
        26                          0.0521635               1.4194
      -------------------------------------------------------------
                  HL-Gap            0.4168656 Eh           11.3435 eV

     #   Z          covCN         q      C6AA      α(0)
     1   1 H        0.925     0.114     1.666     2.018
     2   6 C        3.701    -0.103    22.639     6.804
     3   7 N        3.577     0.082    19.821     6.612
     4   1 H        0.859     0.234     0.950     1.527
     5   1 H        0.925     0.108     1.711     2.045
     6   1 H        0.925     0.109     1.705     2.042
     7   6 C        3.699    -0.103    22.638     6.805
     8   6 C        3.701    -0.103    22.635     6.803
     9   1 H        0.925     0.113     1.668     2.020
    10   1 H        0.925     0.109     1.708     2.044
    11   1 H        0.925     0.110     1.700     2.039
    12   1 H        0.925     0.113     1.669     2.020
    13   1 H        0.925     0.109     1.703     2.041
    14   1 H        0.925     0.109     1.709     2.044

Wiberg/Mayer (AO) data.
largest (>0.10) Wiberg bond orders for each atom

     #   Z sym  total        # sym  WBO       # sym  WBO       # sym  WBO
 ---------------------------------------------------------------------------
     1   1 H    0.987 --     2 C    0.974
     2   6 C    3.912 --     5 H    0.975     6 H    0.974     1 H    0.974
                             3 N    0.957
     3   7 N    3.788 --     8 C    0.958     7 C    0.958     2 C    0.957
                             4 H    0.914
     4   1 H    0.945 --     3 N    0.914
     5   1 H    0.988 --     2 C    0.975
     6   1 H    0.988 --     2 C    0.974
     7   6 C    3.912 --    10 H    0.974    13 H    0.974     9 H    0.974
                             3 N    0.958
     8   6 C    3.912 --    14 H    0.975    11 H    0.974    12 H    0.974
                             3 N    0.958
     9   1 H    0.987 --     7 C    0.974
    10   1 H    0.988 --     7 C    0.974
    11   1 H    0.988 --     8 C    0.974
    12   1 H    0.987 --     8 C    0.974
    13   1 H    0.988 --     7 C    0.974
    14   1 H    0.988 --     8 C    0.975
 ---------------------------------------------------------------------------

molecular dipole:
                 x           y           z       tot (Debye)
 q only:       -0.084      -0.127      -0.243
   full:       -0.133      -0.218      -0.396       1.199

           -------------------------------------------------
          | TOTAL ENERGY              -14.018803291629 Eh   |
          | GRADIENT NORM               0.000318044210 Eh/α |
          | HOMO-LUMO GAP              11.343489634456 eV   |
           -------------------------------------------------

 * finished run on 2023/11/18 at 08:09:59.635
