                               Psi4 1.6 release

  ==> Input File <==

--------------------------------------------------------------------------
molecule {
1 1
 H    1.951563    0.401986    0.040487
 C    1.121499    0.621764   -0.626920
 N   -0.070459   -0.192016   -0.262600
 H   -0.275830   -0.799149   -1.063477
 H    1.439821    0.415691   -1.645688
 H    0.897241    1.682888   -0.543959
 C   -1.265989    0.640724   -0.038783
 C    0.196968   -1.069530    0.891863
 H   -1.093989    1.314438    0.799330
 H   -1.490863    1.226365   -0.928283
 H    1.077340   -1.681960    0.706901
 H    0.370435   -0.462180    1.779391
 H   -2.126180    0.013507    0.189731
 H   -0.652963   -1.723756    1.078016
}
memory 20GB
set_num_threads(5)
psi4_io.set_default_path("/scratch/liuchw/Psi4-32_40_Index_0-farH_in17")
set freeze_core True
E, wfn = energy('wb97x-d/6-311+G*',return_wfn=True)
oeprop(wfn,"WIBERG_LOWDIN_INDICES")
clean()
--------------------------------------------------------------------------

    Molecular point group: c1

    Geometry (in Angstrom), charge = 1, multiplicity = 1:

       Center              X                  Y                   Z               Mass
    ------------   -----------------  -----------------  -----------------  -----------------
         H            1.955883408907     0.401693953771     0.049601492947     1.007825032230
         C            1.125819408907     0.621471953771    -0.617805507053    12.000000000000
         N           -0.066138591093    -0.192308046229    -0.253485507053    14.003074004430
         H           -0.271509591093    -0.799441046229    -1.054362507053     1.007825032230
         H            1.444141408907     0.415398953771    -1.636573507053     1.007825032230
         H            0.901561408907     1.682595953771    -0.534844507053     1.007825032230
         C           -1.261668591093     0.640431953771    -0.029668507053    12.000000000000
         C            0.201288408907    -1.069822046229     0.900977492947    12.000000000000
         H           -1.089668591093     1.314145953771     0.808444492947     1.007825032230
         H           -1.486542591093     1.226072953771    -0.919168507053     1.007825032230
         H            1.081660408907    -1.682252046229     0.716015492947     1.007825032230
         H            0.374755408907    -0.462472046229     1.788505492947     1.007825032230
         H           -2.121859591093     0.013214953771     0.198845492947     1.007825032230
         H           -0.648642591093    -1.724048046229     1.087130492947     1.007825032230

  Charge       = 1
  Multiplicity = 1
  Basis Set: 6-311+G*
    Blend: 6-311+G*
  Basis Set: (6-311+G* AUX)
    Blend: HEAVY-AUG-CC-PVTZ-JKFIT

    Orbital Energies [Eh]
    ---------------------

    Doubly Occupied:

       1A    -14.757418     2A    -10.515524     3A    -10.515408
       4A    -10.514361     5A     -1.321059     6A     -1.038810
       7A     -1.037563     8A     -0.962778     9A     -0.852557
      10A     -0.792455    11A     -0.790531    12A     -0.708180
      13A     -0.706570    14A     -0.675486    15A     -0.673295
      16A     -0.669619    17A     -0.664945

  @DF-RKS Final Energy:  -174.82533229422086

   => Energetics <=

    Nuclear Repulsion Energy =            147.4256342401457687
    One-Electron Energy =                -517.8586455685018564
    Two-Electron Energy =                 213.7546714437104924
    DFT Exchange-Correlation Energy =     -18.1401356394172453
    Empirical Dispersion Energy =          -0.0068567701580026
    VV10 Nonlocal Energy =                  0.0000000000000000
    Total Energy =                       -174.8253322942208570
 Dipole X            :         -0.1918213            0.1312307           -0.0605906
 Dipole Y            :         -0.5648309            0.3613995           -0.2034314
 Dipole Z            :         -0.7537121            0.4728402           -0.2808720
 Magnitude           :                                                    0.3520577
*** Psi4 exiting successfully. Buy a developer a beer!
