   * xtb version 6.5.0 (97a52f5) compiled by 'conda@d2599ee0d4f4' on 2022-05-15
          program call               : /home/liuchw/anaconda3/envs/xtbenv/bin/xtb --gfn 2 --chrg 1 --uhf 0 32_40_Index_0-opt-2-3-183_preQMOPTprefit_xyzformat.xyz --opt --input xtb-opt-2-3-183_constr.txt

   ID    Z sym.   atoms
    1    1 H      1, 4-6, 9-14
    2    6 C      2, 7, 8
    3    7 N      3
constraining angle 5 2 3 4 to  182.9421027°, actual value: -177.0578973°
constraining angle 5 2 3 7 to   66.0540008°, actual value:   66.0540008°
constraining angle 10 7 3 4 to  300.9663567°, actual value:  -59.0336433°
constraining angle 10 7 3 2 to   58.0349480°, actual value:   58.0349480°
constraining angle 11 8 3 4 to   62.9466764°, actual value:   62.9466764°
constraining angle 11 8 3 2 to  306.0487704°, actual value:  -53.9512296°

          :  Hamiltonian                  GFN2-xTB          :
 * total energy  :   -14.0157345 Eh     change       -0.2034461E-10 Eh
 * total energy  :   -14.0183112 Eh     change       -0.2576683E-02 Eh
 * total energy  :   -14.0187967 Eh     change       -0.4855270E-03 Eh
 * total energy  :   -14.0188036 Eh     change       -0.6879003E-05 Eh
 * total energy  :   -14.0188036 Eh     change       -0.4339771E-08 Eh
 * total energy  :   -14.0188052 Eh     change       -0.1618862E-05 Eh
 * total energy  :   -14.0188050 Eh     change        0.1615889E-06 Eh
 * total energy  :   -14.0188052 Eh     change       -0.2002038E-06 Eh
   *** GEOMETRY OPTIMIZATION CONVERGED AFTER 8 ITERATIONS ***

 final structure:
================
14
 xtb: 6.5.0 (97a52f5)
H            1.03904678821399        0.90069614474417       -1.61627975782603
C            1.15291187472382        0.55449095727375       -0.59085398474584
N            0.00143656981537       -0.27763619487913       -0.19558938821922
H            0.00231185195321       -1.10397643085969       -0.80607765657400
H            1.22385783935509        1.41952523595259        0.06696256690065
H            2.07675464711367       -0.01592539891284       -0.51521334766498
C           -1.27634898314931        0.42288921387498       -0.41398949683901
C            0.13899039079809       -0.74498693919889        1.19497504448222
H           -1.31272078268807        1.32123682549724        0.20069471856559
H           -1.37877655554015        0.70993204013694       -1.45869127160096
H            1.09295163497174       -1.25002762112331        1.33340235457837
H            0.09495403846481        0.10639531592130        1.87278526724951
H           -2.11215938643071       -0.21967499490278       -0.14356922978956
H           -0.66461193760153       -1.43416813352435        1.44745218148326

          :  Hamiltonian                  GFN2-xTB          :
         :: total energy             -14.018805241970 Eh    ::
         :: gradient norm              0.000674132357 Eh/a0 ::
         :: HOMO-LUMO gap             11.342357661451 eV    ::
         :: SCC energy               -14.217417449562 Eh    ::
         :: -> dispersion             -0.005288472311 Eh    ::
         :: repulsion energy           0.198590456269 Eh    ::

    * Orbital Energies and Occupations

         #    Occupation            Energy/Eh            Energy/eV
      -------------------------------------------------------------
         1        2.0000           -0.8928672             -24.2962
         2        2.0000           -0.8460720             -23.0228
         3        2.0000           -0.8454925             -23.0070
         4        2.0000           -0.8121115             -22.0987
         5        2.0000           -0.7640646             -20.7913
         6        2.0000           -0.7411310             -20.1672
         7        2.0000           -0.7410213             -20.1642
         8        2.0000           -0.6810231             -18.5316
         9        2.0000           -0.6803751             -18.5139
        10        2.0000           -0.6669836             -18.1495
        11        2.0000           -0.6664813             -18.1359
        12        2.0000           -0.6616082             -18.0033
        13        2.0000           -0.6600785             -17.9617 (HOMO)
        14                         -0.2432546              -6.6193 (LUMO)
        15                         -0.1542920              -4.1985
        16                         -0.1514245              -4.1205
        17                         -0.1412818              -3.8445
        18                         -0.0566670              -1.5420
        19                         -0.0025422              -0.0692
        20                         -0.0015170              -0.0413
        21                          0.0199009               0.5415
        22                          0.0224819               0.6118
        23                          0.0384238               1.0456
        24                          0.0398340               1.0839
       ...                                ...                  ...
        26                          0.0519940               1.4148
      -------------------------------------------------------------
                  HL-Gap            0.4168240 Eh           11.3424 eV

     #   Z          covCN         q      C6AA      α(0)
     1   1 H        0.925     0.109     1.702     2.040
     2   6 C        3.701    -0.103    22.640     6.804
     3   7 N        3.577     0.082    19.821     6.612
     4   1 H        0.859     0.234     0.950     1.527
     5   1 H        0.925     0.113     1.667     2.019
     6   1 H        0.925     0.108     1.712     2.046
     7   6 C        3.699    -0.103    22.638     6.805
     8   6 C        3.701    -0.103    22.635     6.804
     9   1 H        0.925     0.113     1.668     2.020
    10   1 H        0.925     0.109     1.708     2.044
    11   1 H        0.925     0.110     1.700     2.039
    12   1 H        0.925     0.113     1.669     2.020
    13   1 H        0.925     0.109     1.703     2.041
    14   1 H        0.925     0.109     1.709     2.044

Wiberg/Mayer (AO) data.
largest (>0.10) Wiberg bond orders for each atom

     #   Z sym  total        # sym  WBO       # sym  WBO       # sym  WBO
 ---------------------------------------------------------------------------
     1   1 H    0.988 --     2 C    0.974
     2   6 C    3.912 --     6 H    0.975     1 H    0.974     5 H    0.974
                             3 N    0.957
     3   7 N    3.788 --     8 C    0.958     7 C    0.958     2 C    0.957
                             4 H    0.914
     4   1 H    0.945 --     3 N    0.914
     5   1 H    0.987 --     2 C    0.974
     6   1 H    0.988 --     2 C    0.975
     7   6 C    3.912 --    10 H    0.974    13 H    0.974     9 H    0.974
                             3 N    0.958
     8   6 C    3.912 --    14 H    0.974    11 H    0.974    12 H    0.974
                             3 N    0.958
     9   1 H    0.987 --     7 C    0.974
    10   1 H    0.988 --     7 C    0.974
    11   1 H    0.988 --     8 C    0.974
    12   1 H    0.987 --     8 C    0.974
    13   1 H    0.988 --     7 C    0.974
    14   1 H    0.988 --     8 C    0.974
 ---------------------------------------------------------------------------

molecular dipole:
                 x           y           z       tot (Debye)
 q only:        0.010      -0.235      -0.160
   full:        0.010      -0.384      -0.270       1.194

           -------------------------------------------------
          | TOTAL ENERGY              -14.018805241970 Eh   |
          | GRADIENT NORM               0.000674132357 Eh/α |
          | HOMO-LUMO GAP              11.342357661451 eV   |
           -------------------------------------------------

 * finished run on 2023/11/18 at 08:08:30.695
