                               Psi4 1.6 release

  ==> Input File <==

--------------------------------------------------------------------------
molecule {
1 1
 H   10.925500    1.350500   -0.390400
 C   10.063400    2.007500   -0.249000
 N    8.877000    1.153900    0.067600
 H    8.771100    0.509800   -0.732200
 H    9.852300    2.551900   -1.173100
 H   10.231500    2.697000    0.582500
 C    7.579700    1.964000    0.134000
 C    9.073600    0.297700    1.305400
 H    7.817300    2.944100    0.561500
 H    7.252900    2.084900   -0.904200
 H    9.994300   -0.278300    1.166400
 H    9.195000    0.989200    2.147000
 H    6.802300    1.480900    0.744100
 H    8.231700   -0.387300    1.484200
}
set {
  geom_maxiter 400
  g_convergence GAU_LOOSE
  dynamic_level 1
}
geometric_keywords = {
 'coordsys' : 'tric',
 'convergence_cmax' : 1e0,
 'convergence_set' : 'GAU_LOOSE',
 'convergence_energy' : 1e-4,
}
memory 20GB
set_num_threads(5)
psi4_io.set_default_path("/scratch/liuchw/Psi4-32_40_Index_0-farH_in17")
basis {
assign 6-31G*
}
opt_finished = False
if not opt_finished:
    try:
        ener, opt_hist = optimize('mp2',engine='geometric',optimizer_keywords=geometric_keywords, return_history=True)
        opt_finished = len(opt_hist['energy']) < 400
    except Exception as e:
        core.print_out('Exception: %s'%(e))
if not opt_finished:
    try:
        optimize('mp2')
    except:
        set opt_coordinates both
        optimize('mp2')
    opt_finished = True
clean()
assert opt_finished

--------------------------------------------------------------------------

    Molecular point group: c1
  Charge       = 1
  Multiplicity = 1
  Basis Set: ANONYMOUS249FEFA3
    Blend: 6-31G*
  Basis Set: (ANONYMOUS249FEFA3 AUX)
    Blend: CC-PVDZ-JKFIT
  @DF-RHF Final Energy:  -173.64370561109970
    Total Energy =                       -173.6437056110997048
 Dipole X            :         -0.1406198            0.0767071           -0.0639127
 Dipole Y            :         -0.5791890            0.3640247           -0.2151643
 Dipole Z            :         -0.5997170            0.3437749           -0.2559422
 Magnitude           :                                                    0.3404216
  Basis Set: (ANONYMOUS249FEFA3 AUX)
    Blend: CC-PVDZ-RI
    Molecular point group: c1
  Basis Set: ANONYMOUS249FEFA3
    Blend: 6-31G*
  Basis Set: (ANONYMOUS249FEFA3 AUX)
    Blend: CC-PVDZ-JKFIT
  Basis Set: (ANONYMOUS249FEFA3 AUX)
    Blend: CC-PVDZ-JKFIT
	 Reference Energy          =    -173.6437056110997048 [Eh]
	 Singles Energy            =      -0.0000000000000000 [Eh]
	 Same-Spin Energy          =      -0.1322744447691955 [Eh]
	 Opposite-Spin Energy      =      -0.4420672723537425 [Eh]
	 Correlation Energy        =      -0.5743417171229381 [Eh]
	 Total Energy              =    -174.2180473282226387 [Eh]
	 SCS Total Energy          =    -174.2182778195139292 [Eh]
  @DF-RHF Final Energy:  -173.64767451812673
    Total Energy =                       -173.6476745181267347
  @DF-RHF Final Energy:  -173.64816843369098
    Total Energy =                       -173.6481684336909836
  @DF-RHF Final Energy:  -173.64918879622778
    Total Energy =                       -173.6491887962277758
  @DF-RHF Final Energy:  -173.64956060590296
    Total Energy =                       -173.6495606059029626
  @DF-RHF Final Energy:  -173.64980171988969
    Total Energy =                       -173.6498017198896946
  Charge       = 1
  Multiplicity = 1
  Basis Set: ANONYMOUS249FEFA3
    Blend: 6-31G*
  Basis Set: (ANONYMOUS249FEFA3 AUX)
    Blend: CC-PVDZ-JKFIT

    Orbital Energies [Eh]
    ---------------------

    Doubly Occupied:

       1A    -15.889036     2A    -11.467521     3A    -11.467513
       4A    -11.467490     5A     -1.517994     6A     -1.184556
       7A     -1.184449     8A     -1.088905     9A     -0.939092
      10A     -0.864855    11A     -0.864773    12A     -0.775176
      13A     -0.774777    14A     -0.744132    15A     -0.743364
      16A     -0.738653    17A     -0.738457

  @DF-RHF Final Energy:  -173.64984427469989

   => Energetics <=

    Nuclear Repulsion Energy =            146.4023776365331173
    One-Electron Energy =                -515.2029556456054706
    Two-Electron Energy =                 195.1507337343724657
    Total Energy =                       -173.6498442746998876
 Dipole X            :         -0.1119879            0.0664934           -0.0454945
 Dipole Y            :         -0.5041750            0.2667415           -0.2374335
 Dipole Z            :         -0.3319166            0.0700824           -0.2618341
 Magnitude           :                                                    0.3563727
  Basis Set: (ANONYMOUS249FEFA3 AUX)
    Blend: CC-PVDZ-RI
    Molecular point group: c1
  Basis Set: ANONYMOUS249FEFA3
    Blend: 6-31G*
  Basis Set: (ANONYMOUS249FEFA3 AUX)
    Blend: CC-PVDZ-JKFIT
  Basis Set: (ANONYMOUS249FEFA3 AUX)
    Blend: CC-PVDZ-JKFIT
	 Reference Energy          =    -173.6498442746998876 [Eh]
	 Singles Energy            =      -0.0000000000000000 [Eh]
	 Same-Spin Energy          =      -0.1324676987259458 [Eh]
	 Opposite-Spin Energy      =      -0.4406562578920540 [Eh]
	 Correlation Energy        =      -0.5731239566179998 [Eh]
	 Total Energy              =    -174.2229682313178785 [Eh]

	 ================> DF-SCS-MP2 Energies <==================
	-----------------------------------------------------------
	 SCS Same-Spin Scale       =       0.3333333333333333 [-]
	 SCS Opposite-Spin Scale   =       1.2000000000000000 [-]
	 SCS Same-Spin Energy      =      -0.0441558995753153 [Eh]
	 SCS Opposite-Spin Energy  =      -0.5287875094704647 [Eh]
	 SCS Correlation Energy    =      -0.5729434090457800 [Eh]
	 SCS Total Energy          =    -174.2227876837456790 [Eh]
	-----------------------------------------------------------

  -Total Gradient:
     Atom            X                  Y                   Z
    ------   -----------------  -----------------  -----------------
       1       -0.000087673536    -0.000062326419    -0.000152321439
       2        0.000328101816     0.000112740694    -0.000136851313
       3       -0.000124467103    -0.000037069230     0.000096694908
       4       -0.000051355404    -0.000108220889     0.000082933496
       5       -0.000101413277     0.000070516177     0.000095622294
       6        0.000080269875    -0.000122295455     0.000072382642
       7       -0.000096226693     0.000095165263    -0.000220571456
       8       -0.000027703898     0.000004518411     0.000149944409
       9       -0.000001636453     0.000025645520     0.000017777813
      10        0.000018170901     0.000029711705     0.000005021096
      11        0.000114098752     0.000125971481     0.000045321823
      12       -0.000134413903     0.000015797706     0.000024396992
      13        0.000033997417    -0.000036527458     0.000064692755
      14        0.000050251505    -0.000113627506    -0.000145044021

    Molecular point group: c1

    Geometry (in Angstrom), charge = 1, multiplicity = 1:

    H            2.004167988783    -0.044962197555    -0.757889323712
    C            1.143401371164     0.608679442723    -0.622740427869
    N           -0.043985169183    -0.226939959381    -0.248352662632
    H           -0.178956089980    -0.920689590675    -0.995403038676
    H            0.922353086460     1.139785767116    -1.547598340986
    H            1.328276080374     1.315921059322     0.185114602571
    C           -1.294463644254     0.596267711785    -0.171451823154
    C            0.195162499517    -0.982143180324     1.024431227677
    H           -1.157377422049     1.349089937552     0.604185086113
    H           -1.461806067394     1.073614324729    -1.136101190408
    H            1.113074771955    -1.559973614308     0.923967167317
    H            0.289881668190    -0.259713674705     1.834450870853
    H           -2.130098554978    -0.056169121771     0.078775983675
    H           -0.651033856845    -1.643993478971     1.204618996329

*** Psi4 exiting successfully. Buy a developer a beer!
