                               Psi4 1.6 release

  ==> Input File <==

--------------------------------------------------------------------------
molecule {
0 1
 H    0.099059    0.364684   -1.199864
 N    0.200111   -0.114741   -0.298955
 C    1.294357   -0.948450   -0.059406
 C    2.584590   -0.484102   -0.305467
 C   -0.775477    0.154792    0.576359
 C    1.115228   -2.202030    0.520011
 C   -1.816704    0.970485    0.240749
 N   -3.070697    2.343184   -1.029668
 C   -2.942091    1.429177    1.009500
 C   -1.932577    1.587657   -1.077646
 C   -3.668008    2.241763    0.217422
 C    2.211212   -2.994888    0.806453
 C    3.673639   -1.285717   -0.021878
 C    3.491202   -2.541440    0.535286
 H    0.114800   -2.553558    0.725506
 H    2.718698    0.496622   -0.736991
 H   -3.419761    2.892462   -1.796868
 O   -1.177469    1.481078   -2.044247
 H    2.064508   -3.971336    1.243962
 H    4.670989   -0.923313   -0.221974
 H   -3.152484    1.159498    2.025187
 H   -4.576746    2.772974    0.425528
 H    4.344562   -3.163059    0.760099
 H   -0.685188   -0.272761    1.568184
}
memory 20GB
set_num_threads(5)
psi4_io.set_default_path("/scratch/liuchw/Psi4-1_16_Index_0-farH_in17")
set freeze_core True
E, wfn = energy('wb97x-d/6-311+G*',return_wfn=True)
oeprop(wfn,"WIBERG_LOWDIN_INDICES")
clean()
--------------------------------------------------------------------------

    Molecular point group: c1

    Geometry (in Angstrom), charge = 0, multiplicity = 1:

       Center              X                  Y                   Z               Mass
    ------------   -----------------  -----------------  -----------------  -----------------
         H            0.195848958491     0.349642442893    -1.096729784769     1.007825032230
         N            0.296900958491    -0.129782557107    -0.195820784769    14.003074004430
         C            1.391146958491    -0.963491557107     0.043728215231    12.000000000000
         C            2.681379958491    -0.499143557107    -0.202332784769    12.000000000000
         C           -0.678687041509     0.139750442893     0.679493215231    12.000000000000
         C            1.212017958491    -2.217071557107     0.623145215231    12.000000000000
         C           -1.719914041509     0.955443442893     0.343883215231    12.000000000000
         N           -2.973907041509     2.328142442893    -0.926533784769    14.003074004430
         C           -2.845301041509     1.414135442893     1.112634215231    12.000000000000
         C           -1.835787041509     1.572615442893    -0.974511784769    12.000000000000
         C           -3.571218041509     2.226721442893     0.320556215231    12.000000000000
         C            2.308001958491    -3.009929557107     0.909587215231    12.000000000000
         C            3.770428958491    -1.300758557107     0.081256215231    12.000000000000
         C            3.587991958491    -2.556481557107     0.638420215231    12.000000000000
         H            0.211589958491    -2.568599557107     0.828640215231     1.007825032230
         H            2.815487958491     0.481580442893    -0.633856784769     1.007825032230
         H           -3.322971041509     2.877420442893    -1.693733784769     1.007825032230
         O           -1.080679041509     1.466036442893    -1.941112784769    15.994914619570
         H            2.161297958491    -3.986377557107     1.347096215231     1.007825032230
         H            4.767778958491    -0.938354557107    -0.118839784769     1.007825032230
         H           -3.055694041509     1.144456442893     2.128321215231     1.007825032230
         H           -4.479956041509     2.757932442893     0.528662215231     1.007825032230
         H            4.441351958491    -3.178100557107     0.863233215231     1.007825032230
         H           -0.588398041509    -0.287802557107     1.671318215231     1.007825032230

  Charge       = 0
  Multiplicity = 1
  Basis Set: 6-311+G*
    Blend: 6-311+G*
  Basis Set: (6-311+G* AUX)
    Blend: HEAVY-AUG-CC-PVTZ-JKFIT

    Orbital Energies [Eh]
    ---------------------

    Doubly Occupied:

       1A    -19.206746     2A    -14.472062     3A    -14.463719
       4A    -10.375065     5A    -10.352825     6A    -10.341425
       7A    -10.313350     8A    -10.299445     9A    -10.298776
      10A    -10.298740    11A    -10.297509    12A    -10.294791
      13A    -10.278524    14A    -10.275829    15A     -1.139430
      16A     -1.078652    17A     -1.058865    18A     -0.972612
      19A     -0.906098    20A     -0.865640    21A     -0.861150
      22A     -0.817165    23A     -0.769941    24A     -0.727251
      25A     -0.713965    26A     -0.683894    27A     -0.680661
      28A     -0.643438    29A     -0.603561    30A     -0.587916
      31A     -0.584763    32A     -0.559194    33A     -0.542477
      34A     -0.530434    35A     -0.524435    36A     -0.517404
      37A     -0.512481    38A     -0.499360    39A     -0.484428
      40A     -0.482560    41A     -0.455445    42A     -0.454708
      43A     -0.436241    44A     -0.413450    45A     -0.360078
      46A     -0.346011    47A     -0.339258    48A     -0.319213
      49A     -0.258626

  @DF-RKS Final Energy:  -609.84752022670875

   => Energetics <=

    Nuclear Repulsion Energy =            796.0929805891792057
    One-Electron Energy =               -2404.9614355099529348
    Two-Electron Energy =                1058.3683181318219795
    DFT Exchange-Correlation Energy =     -59.3346427703519765
    Empirical Dispersion Energy =          -0.0127406674049343
    VV10 Nonlocal Energy =                  0.0000000000000000
    Total Energy =                       -609.8475202267086388
 Dipole X            :         -2.9516454            2.9521773            0.0005318
 Dipole Y            :          2.8642682           -3.1381786           -0.2739104
 Dipole Z            :         -2.6907939            3.5789204            0.8881265
 Magnitude           :                                                    0.9294062
*** Psi4 exiting successfully. Buy a developer a beer!
