                               Psi4 1.6 release

  ==> Input File <==

--------------------------------------------------------------------------
molecule {
0 1
 H  -11.047200    0.233600    0.388200
 C  -10.636100    0.611800    1.329500
 O   -9.386700    1.266900    1.102500
 C   -8.427800    0.459100    0.585700
 H  -10.517400   -0.198700    2.055500
 H  -11.333400    1.346400    1.741500
 O   -8.557700   -0.725300    0.321900
 H   -7.445300    0.911800    0.386500
}
set {
  geom_maxiter 400
  g_convergence GAU_LOOSE
  dynamic_level 1
}
geometric_keywords = {
 'coordsys' : 'tric',
 'convergence_cmax' : 1e0,
 'convergence_set' : 'GAU_LOOSE',
 'convergence_energy' : 1e-4,
}
memory 20GB
set_num_threads(5)
psi4_io.set_default_path("/scratch/liuchw/Psi4-35_38_Index_0-farH_in17")
basis {
assign 6-31G*
}
opt_finished = False
if not opt_finished:
    try:
        ener, opt_hist = optimize('mp2',engine='geometric',optimizer_keywords=geometric_keywords, return_history=True)
        opt_finished = len(opt_hist['energy']) < 400
    except Exception as e:
        core.print_out('Exception: %s'%(e))
if not opt_finished:
    try:
        optimize('mp2')
    except:
        set opt_coordinates both
        optimize('mp2')
    opt_finished = True
clean()
assert opt_finished

--------------------------------------------------------------------------

    Molecular point group: c1
  Charge       = 0
  Multiplicity = 1
  Basis Set: ANONYMOUS97261C56
    Blend: 6-31G*
  Basis Set: (ANONYMOUS97261C56 AUX)
    Blend: CC-PVDZ-JKFIT
  @DF-RHF Final Energy:  -227.78096423836240
    Total Energy =                       -227.7809642383624009
 Dipole X            :          2.7365405           -3.0533091           -0.3167686
 Dipole Y            :         -0.0459099            0.6600286            0.6141187
 Dipole Z            :         -0.8805480            1.1375046            0.2569566
 Magnitude           :                                                    0.7372319
  Basis Set: (ANONYMOUS97261C56 AUX)
    Blend: CC-PVDZ-RI
    Molecular point group: c1
  Basis Set: ANONYMOUS97261C56
    Blend: 6-31G*
  Basis Set: (ANONYMOUS97261C56 AUX)
    Blend: CC-PVDZ-JKFIT
  Basis Set: (ANONYMOUS97261C56 AUX)
    Blend: CC-PVDZ-JKFIT
	 Reference Energy          =    -227.7809642383624009 [Eh]
	 Singles Energy            =      -0.0000000000000000 [Eh]
	 Same-Spin Energy          =      -0.1643779943668683 [Eh]
	 Opposite-Spin Energy      =      -0.4619535767486345 [Eh]
	 Correlation Energy        =      -0.6263315711155027 [Eh]
	 Total Energy              =    -228.4072958094779153 [Eh]
	 SCS Total Energy          =    -228.3901011952497129 [Eh]
  @DF-RHF Final Energy:  -227.78496437479296
    Total Energy =                       -227.7849643747929633
  @DF-RHF Final Energy:  -227.78255834582259
    Total Energy =                       -227.7825583458225935
  @DF-RHF Final Energy:  -227.78473722644813
    Total Energy =                       -227.7847372264481294
  @DF-RHF Final Energy:  -227.78541040559170
    Total Energy =                       -227.7854104055917048
  @DF-RHF Final Energy:  -227.78534847354169
    Total Energy =                       -227.7853484735416885
  Charge       = 0
  Multiplicity = 1
  Basis Set: ANONYMOUS97261C56
    Blend: 6-31G*
  Basis Set: (ANONYMOUS97261C56 AUX)
    Blend: CC-PVDZ-JKFIT

    Orbital Energies [Eh]
    ---------------------

    Doubly Occupied:

       1A    -20.621349     2A    -20.565750     3A    -11.391165
       4A    -11.293120     5A     -1.461846     6A     -1.362211
       7A     -0.987500     8A     -0.819662     9A     -0.733611
      10A     -0.674038    11A     -0.671527    12A     -0.592194
      13A     -0.549591    14A     -0.536556    15A     -0.464561
      16A     -0.460006

  @DF-RHF Final Energy:  -227.78534329061085

   => Energetics <=

    Nuclear Repulsion Energy =            121.9385461520551672
    One-Electron Energy =                -553.0784008094032060
    Two-Electron Energy =                 203.3545113667371993
    Total Energy =                       -227.7853432906108537
 Dipole X            :          2.7480292           -3.0838528           -0.3358236
 Dipole Y            :          0.9849384           -0.3585182            0.6264202
 Dipole Z            :         -0.5577678            0.8268006            0.2690327
 Magnitude           :                                                    0.7599726
  Basis Set: (ANONYMOUS97261C56 AUX)
    Blend: CC-PVDZ-RI
    Molecular point group: c1
  Basis Set: ANONYMOUS97261C56
    Blend: 6-31G*
  Basis Set: (ANONYMOUS97261C56 AUX)
    Blend: CC-PVDZ-JKFIT
  Basis Set: (ANONYMOUS97261C56 AUX)
    Blend: CC-PVDZ-JKFIT
	 Reference Energy          =    -227.7853432906108537 [Eh]
	 Singles Energy            =      -0.0000000000000000 [Eh]
	 Same-Spin Energy          =      -0.1644045267961325 [Eh]
	 Opposite-Spin Energy      =      -0.4614155393197975 [Eh]
	 Correlation Energy        =      -0.6258200661159300 [Eh]
	 Total Energy              =    -228.4111633567267745 [Eh]

	 ================> DF-SCS-MP2 Energies <==================
	-----------------------------------------------------------
	 SCS Same-Spin Scale       =       0.3333333333333333 [-]
	 SCS Opposite-Spin Scale   =       1.2000000000000000 [-]
	 SCS Same-Spin Energy      =      -0.0548015089320441 [Eh]
	 SCS Opposite-Spin Energy  =      -0.5536986471837569 [Eh]
	 SCS Correlation Energy    =      -0.6085001561158011 [Eh]
	 SCS Total Energy          =    -228.3938434467266632 [Eh]
	-----------------------------------------------------------

  -Total Gradient:
     Atom            X                  Y                   Z
    ------   -----------------  -----------------  -----------------
       1       -0.000028378684    -0.000014219567     0.000012443697
       2        0.000133546412     0.000066230128    -0.000027620365
       3       -0.000005781123    -0.000080200627     0.000042673084
       4       -0.000124261317     0.000122985209    -0.000127518203
       5       -0.000039076599    -0.000009020097     0.000005005398
       6        0.000002255311    -0.000008752614    -0.000002935276
       7        0.000049527805    -0.000057942035     0.000040742978
       8        0.000012168196    -0.000019080398     0.000057208687

    Molecular point group: c1

    Geometry (in Angstrom), charge = 0, multiplicity = 1:

    H           -1.774028277812    -0.182574908928    -0.443316090550
    C           -1.365446920210     0.208925140954     0.488792538913
    O           -0.094718792765     0.847823489500     0.248962265254
    C            0.841552936258     0.028644219458    -0.262516071680
    H           -1.249778537572    -0.607472228568     1.202356669216
    H           -2.003908419981     0.990089379105     0.893912600117
    O            0.690808176686    -1.148917701955    -0.519122080011
    H            1.770459436424     0.593575639468    -0.411809452167

*** Psi4 exiting successfully. Buy a developer a beer!
