                               Psi4 1.6 release

  ==> Input File <==

--------------------------------------------------------------------------
molecule {
0 1
H -1.774028277812 -0.182574908928 -0.44331609055
C -1.36544692021 0.208925140954 0.488792538913
O -0.094718792765 0.8478234895 0.248962265254
C 0.841552936258 0.028644219458 -0.26251607168
H -1.249778537572 -0.607472228568 1.202356669216
H -2.003908419981 0.990089379105 0.893912600117
O 0.690808176686 -1.148917701955 -0.519122080011
H 1.770459436424 0.593575639468 -0.411809452167
no_reorient
}
memory 20GB
set_num_threads(5)
psi4_io.set_default_path("/scratch/liuchw/Psi4-35_38_Index_0-farH_in17")
set freeze_core True
set PROPERTIES_ORIGIN ["COM"]
set cubeprop_tasks ['esp']
set basis 6-311G**
E, wfn = properties('mp2',properties=['dipole'],return_wfn=True)
cubeprop(wfn)
fchk(wfn, "35_38_Index_0-dma.fchk")
clean()
--------------------------------------------------------------------------

    Molecular point group: c1
  Charge       = 0
  Multiplicity = 1
  Basis Set: 6-311G**
    Blend: 6-311G**
  Basis Set: (6-311G** AUX)
    Blend: CC-PVTZ-JKFIT

    Orbital Energies [Eh]
    ---------------------

    Doubly Occupied:

       1A    -20.609894     2A    -20.552162     3A    -11.387351
       4A    -11.292449     5A     -1.462951     6A     -1.363397
       7A     -0.988040     8A     -0.820202     9A     -0.735117
      10A     -0.676789    11A     -0.672540    12A     -0.593011
      13A     -0.550548    14A     -0.537725    15A     -0.466700
      16A     -0.462460

  @DF-RHF Final Energy:  -227.84672356201048

   => Energetics <=

    Nuclear Repulsion Energy =            121.9385461520797236
    One-Electron Energy =                -553.2278673852132442
    Two-Electron Energy =                 203.4425976711230533
    Total Energy =                       -227.8467235620104816
  Basis Set: (6-311G** AUX)
    Blend: CC-PVTZ-RI
    Molecular point group: c1

    Geometry (in Angstrom), charge = 0, multiplicity = 1:

       Center              X                  Y                   Z               Mass
    ------------   -----------------  -----------------  -----------------  -----------------
         H           -1.773443934650    -0.163159813920    -0.437401342671     1.007825032230
         C           -1.364862577048     0.228340235962     0.494707286792    12.000000000000
         O           -0.094134449603     0.867238584508     0.254877013133    15.994914619570
         C            0.842137279420     0.048059314466    -0.256601323801    12.000000000000
         H           -1.249194194410    -0.588057133560     1.208271417095     1.007825032230
         H           -2.003324076819     1.009504474113     0.899827347996     1.007825032230
         O            0.691392519848    -1.129502606947    -0.513207332132    15.994914619570
         H            1.771043779586     0.612990734476    -0.405894704288     1.007825032230

  Basis Set: 6-311G**
    Blend: 6-311G**
  Basis Set: (6-311G** AUX)
    Blend: CC-PVTZ-JKFIT
	 Reference Energy          =    -227.8467235620104816 [Eh]
	 Singles Energy            =      -0.0000000000000000 [Eh]
	 Same-Spin Energy          =      -0.1741964774379124 [Eh]
	 Opposite-Spin Energy      =      -0.5072233052898990 [Eh]
	 Correlation Energy        =      -0.6814197827278115 [Eh]
	 Total Energy              =    -228.5281433447382824 [Eh]

	 ================> DF-SCS-MP2 Energies <==================
	-----------------------------------------------------------
	 SCS Same-Spin Scale       =       0.3333333333333333 [-]
	 SCS Opposite-Spin Scale   =       1.2000000000000000 [-]
	 SCS Same-Spin Energy      =      -0.0580654924793041 [Eh]
	 SCS Opposite-Spin Energy  =      -0.6086679663478788 [Eh]
	 SCS Correlation Energy    =      -0.6667334588271829 [Eh]
	 SCS Total Energy          =    -228.5134570208376772 [Eh]
	-----------------------------------------------------------

 Dipole X            :          2.6824595           -3.0485169           -0.3660573
 Dipole Y            :         -0.3230793            0.8155366            0.4924573
 Dipole Z            :         -0.9402775            1.1844727            0.2441952
 Magnitude           :                                                    0.6604116
  Basis Set: 6-311G**
    Blend: 6-311G**
*** Psi4 exiting successfully. Buy a developer a beer!
