                               Psi4 1.6 release

  ==> Input File <==

--------------------------------------------------------------------------
molecule {
0 1
H        -11.04720        0.23360        0.38820
C        -10.63610        0.61180        1.32950
O         -9.38670        1.26690        1.10250
C         -8.42780        0.45910        0.58570
H        -10.51740       -0.19870        2.05550
H        -11.33340        1.34640        1.74150
C         -7.16190        1.21630        0.37150
C         -4.88910        1.21140       -0.43690
C         -4.78720        2.54830       -0.03700
C         -6.08150        0.53520       -0.22350
C         -5.82480        3.24840        0.54820
C         -7.02720        2.56920        0.75100
O         -8.55770       -0.72530        0.32190
H         -6.20520       -0.50650       -0.49970
H         -5.71760        4.28610        0.84440
H         -7.85720        3.10110        1.21180
H         -4.08960        0.73570       -0.88370
H         -3.89060        3.03680       -0.18690
}
memory 208GB
set_num_threads(51)
psi4_io.set_default_path("/scratch/liuchw/Psi4-farH_in17")
set maxiter 500
set freeze_core True
set PROPERTIES_ORIGIN ["COM"]
set cubeprop_tasks ['esp']
set basis MINIX
E, wfn = properties('hf',properties=['dipole','WIBERG_LOWDIN_INDICES','MULLIKEN_CHARGES'],return_wfn=True)
cubeprop(wfn)
fchk(wfn, "farH_in17-esp_frag.fchk")
clean()
--------------------------------------------------------------------------

    Molecular point group: c1

    Geometry (in Angstrom), charge = 0, multiplicity = 1:

       Center              X                  Y                   Z               Mass
    ------------   -----------------  -----------------  -----------------  -----------------
         H           -3.651674598583    -1.012889435987    -0.068629827457     1.007825032230
         C           -3.240574598583    -0.634689435987     0.872670172543    12.000000000000
         O           -1.991174598583     0.020410564013     0.645670172543    15.994914619570
         C           -1.032274598583    -0.787389435987     0.128870172543    12.000000000000
         H           -3.121874598583    -1.445189435987     1.598670172543     1.007825032230
         H           -3.937874598583     0.099910564013     1.284670172543     1.007825032230
         C            0.233625401417    -0.030189435987    -0.085329827457    12.000000000000
         C            2.506425401417    -0.035089435987    -0.893729827457    12.000000000000
         C            2.608325401417     1.301810564013    -0.493829827457    12.000000000000
         C            1.314025401417    -0.711289435987    -0.680329827457    12.000000000000
         C            1.570725401417     2.001910564013     0.091370172543    12.000000000000
         C            0.368325401417     1.322710564013     0.294170172543    12.000000000000
         O           -1.162174598583    -1.971789435987    -0.134929827457    15.994914619570
         H            1.190325401417    -1.752989435987    -0.956529827457     1.007825032230
         H            1.677925401417     3.039610564013     0.387570172543     1.007825032230
         H           -0.461674598583     1.854610564013     0.754970172543     1.007825032230
         H            3.305925401417    -0.510789435987    -1.340529827457     1.007825032230
         H            3.504925401417     1.790310564013    -0.643729827457     1.007825032230

  Charge       = 0
  Multiplicity = 1
  Basis Set: MINIX
    Blend: MINIX
  Basis Set: (MINIX AUX)
    Blend: DEF2-UNIVERSAL-JKFIT

    Orbital Energies [Eh]
    ---------------------

    Doubly Occupied:

       1A    -20.378470     2A    -20.330147     3A    -11.361328
       4A    -11.237390     5A    -11.201918     6A    -11.195940
       7A    -11.195551     8A    -11.195381     9A    -11.188577
      10A    -11.187734    11A     -1.456424    12A     -1.352257
      13A     -1.175595    14A     -1.054238    15A     -1.037122
      16A     -0.970217    17A     -0.867713    18A     -0.838593
      19A     -0.771977    20A     -0.733966    21A     -0.682925
      22A     -0.673778    23A     -0.652915    24A     -0.634320
      25A     -0.611872    26A     -0.604700    27A     -0.576364
      28A     -0.568526    29A     -0.519817    30A     -0.518756
      31A     -0.505932    32A     -0.491139    33A     -0.431644
      34A     -0.426196    35A     -0.362345    36A     -0.356761

  @DF-RHF Final Energy:  -454.18841964943704

   => Energetics <=

    Nuclear Repulsion Energy =            489.6253588057800243
    One-Electron Energy =               -1588.9305620698996790
    Two-Electron Energy =                 645.1167836146826176
    Total Energy =                       -454.1884196494370372
 Dipole X            :          1.3688202           -1.4157282           -0.0469080
 Dipole Y            :         -1.3069532            1.9242337            0.6172805
 Dipole Z            :         -0.7783606            0.9553556            0.1769950
 Magnitude           :                                                    0.6438655

  Mulliken Charges: (a.u.)
   Center  Symbol    Alpha    Beta     Spin     Total
       1     H     0.42567  0.42567  0.00000  0.14865
       2     C     3.08365  3.08365  0.00000 -0.16729
       3     O     4.21280  4.21280  0.00000 -0.42561
       4     C     2.75840  2.75840  0.00000  0.48320
       5     H     0.42568  0.42568  0.00000  0.14864
       6     H     0.42552  0.42552  0.00000  0.14896
       7     C     3.02444  3.02444  0.00000 -0.04888
       8     C     3.07616  3.07616  0.00000 -0.15232
       9     C     3.06378  3.06378  0.00000 -0.12756
      10     C     3.05329  3.05329  0.00000 -0.10658
      11     C     3.07306  3.07306  0.00000 -0.14612
      12     C     3.05285  3.05285  0.00000 -0.10570
      13     O     4.20651  4.20651  0.00000 -0.41302
      14     H     0.41773  0.41773  0.00000  0.16453
      15     H     0.42604  0.42604  0.00000  0.14791
      16     H     0.41899  0.41899  0.00000  0.16201
      17     H     0.42710  0.42710  0.00000  0.14579
      18     H     0.42831  0.42831  0.00000  0.14338

   Total alpha = 36.00000, Total beta = 36.00000, Total charge = -0.00000

  Basis Set: MINIX
    Blend: MINIX
*** Psi4 exiting successfully. Buy a developer a beer!
