                               Psi4 1.6 release

  ==> Input File <==

--------------------------------------------------------------------------
molecule {
0 1
 C    2.290132   -0.509939    0.290938
 N    1.078134   -0.406052    0.889753
 C   -0.120894   -0.172117    0.168983
 C   -0.093152    0.426977   -1.089260
 C    1.035146   -0.348509    2.337043
 C   -1.353046   -0.564156    0.689994
 C   -2.519300   -0.349092   -0.021353
 C   -2.484818    0.255615   -1.264899
 C   -1.264590    0.638627   -1.792519
 H   -1.425226   -1.054975    1.647410
 H    0.844858    0.731625   -1.519560
 O    2.544831   -0.461109   -0.885909
 H    1.970876   -0.722709    2.747095
 H    0.218332   -0.944914    2.735963
 H    0.892542    0.684573    2.669062
 H   -3.461517   -0.663157    0.403468
 H   -1.218046    1.110402   -2.762628
 H   -3.397834    0.422994   -1.815837
 H    3.087255   -0.675297    1.042840
}
memory 20GB
set_num_threads(5)
psi4_io.set_default_path("/scratch/liuchw/Psi4-3_24_Index_0-farH_in17")
set freeze_core True
E, wfn = energy('wb97x-d/6-311+G*',return_wfn=True)
oeprop(wfn,"WIBERG_LOWDIN_INDICES")
clean()
--------------------------------------------------------------------------

    Molecular point group: c1

    Geometry (in Angstrom), charge = 0, multiplicity = 1:

       Center              X                  Y                   Z               Mass
    ------------   -----------------  -----------------  -----------------  -----------------
         C            2.296298903484    -0.349630176803     0.325702181886    12.000000000000
         N            1.084300903484    -0.245743176803     0.924517181886    14.003074004430
         C           -0.114727096516    -0.011808176803     0.203747181886    12.000000000000
         C           -0.086985096516     0.587285823197    -1.054495818114    12.000000000000
         C            1.041312903484    -0.188200176803     2.371807181886    12.000000000000
         C           -1.346879096516    -0.403847176803     0.724758181886    12.000000000000
         C           -2.513133096516    -0.188783176803     0.013411181886    12.000000000000
         C           -2.478651096516     0.415923823197    -1.230134818114    12.000000000000
         C           -1.258423096516     0.798935823197    -1.757754818114    12.000000000000
         H           -1.419059096516    -0.894666176803     1.682174181886     1.007825032230
         H            0.851024903484     0.891933823197    -1.484795818114     1.007825032230
         O            2.550997903484    -0.300800176803    -0.851144818114    15.994914619570
         H            1.977042903484    -0.562400176803     2.781859181886     1.007825032230
         H            0.224498903484    -0.784605176803     2.770727181886     1.007825032230
         H            0.898708903484     0.844881823197     2.703826181886     1.007825032230
         H           -3.455350096516    -0.502848176803     0.438232181886     1.007825032230
         H           -1.211879096516     1.270710823197    -2.727863818114     1.007825032230
         H           -3.391667096516     0.583302823197    -1.781072818114     1.007825032230
         H            3.093421903484    -0.514988176803     1.077604181886     1.007825032230

  Charge       = 0
  Multiplicity = 1
  Basis Set: 6-311+G*
    Blend: 6-311+G*
  Basis Set: (6-311+G* AUX)
    Blend: HEAVY-AUG-CC-PVTZ-JKFIT

    Orbital Energies [Eh]
    ---------------------

    Doubly Occupied:

       1A    -19.223991     2A    -14.487656     3A    -10.391296
       4A    -10.340027     5A    -10.334286     6A    -10.295671
       7A    -10.293087     8A    -10.289469     9A    -10.287545
      10A    -10.285044    11A     -1.159389    12A     -1.072389
      13A     -0.966508    14A     -0.866275    15A     -0.859513
      16A     -0.822360    17A     -0.753363    18A     -0.711250
      19A     -0.674075    20A     -0.618180    21A     -0.607700
      22A     -0.578517    23A     -0.574713    24A     -0.547277
      25A     -0.537550    26A     -0.515841    27A     -0.509309
      28A     -0.500063    29A     -0.490990    30A     -0.467423
      31A     -0.451005    32A     -0.437209    33A     -0.383773
      34A     -0.351852    35A     -0.335583    36A     -0.306572

  @DF-RKS Final Energy:  -440.19690279315500

   => Energetics <=

    Nuclear Repulsion Energy =            499.0008588730098609
    One-Electron Energy =               -1584.5729902901239257
    Two-Electron Energy =                 688.3376823301068725
    DFT Exchange-Correlation Energy =     -42.9526429749676737
    Empirical Dispersion Energy =          -0.0098107311800116
    VV10 Nonlocal Energy =                  0.0000000000000000
    Total Energy =                       -440.1969027931550045
 Dipole X            :          1.6453280           -2.2719968           -0.6266688
 Dipole Y            :         -0.2296496            0.3098721            0.0802225
 Dipole Z            :         -3.7532289            5.1124558            1.3592269
 Magnitude           :                                                    1.4988820
*** Psi4 exiting successfully. Buy a developer a beer!
