                               Psi4 1.6 release

  ==> Input File <==

--------------------------------------------------------------------------
molecule {
0 1
 C    1.791906    0.867196    1.319986
 N    1.059050   -0.215571    0.983291
 C   -0.139597   -0.066528    0.233203
 C   -0.330374   -0.791756   -0.936793
 C    1.413105   -1.539654    1.439881
 C   -1.114803    0.826930    0.657444
 C   -2.274859    0.983555   -0.079641
 C   -2.471747    0.249691   -1.236745
 C   -1.496444   -0.635637   -1.663568
 H   -0.955158    1.402146    1.555613
 H    0.435399   -1.467483   -1.288554
 O    1.556592    2.009806    1.017232
 H    2.453684   -1.552742    1.759955
 H    1.279242   -2.268082    0.641347
 H    0.779964   -1.836187    2.282142
 H   -3.028589    1.680956    0.254073
 H   -1.638447   -1.201849   -2.572262
 H   -3.379262    0.371241   -1.808850
 H    2.684024    0.582755    1.912832
}
memory 20GB
set_num_threads(5)
psi4_io.set_default_path("/scratch/liuchw/Psi4-3_24_Index_0-farH_in17")
set freeze_core True
E, wfn = energy('wb97x-d/6-311+G*',return_wfn=True)
oeprop(wfn,"WIBERG_LOWDIN_INDICES")
clean()
--------------------------------------------------------------------------

    Molecular point group: c1

    Geometry (in Angstrom), charge = 0, multiplicity = 1:

       Center              X                  Y                   Z               Mass
    ------------   -----------------  -----------------  -----------------  -----------------
         C            1.918701750612     0.692982254955     1.100818939577    12.000000000000
         N            1.185845750612    -0.389784745045     0.764123939577    14.003074004430
         C           -0.012801249388    -0.240741745045     0.014035939577    12.000000000000
         C           -0.203578249388    -0.965969745045    -1.155960060423    12.000000000000
         C            1.539900750612    -1.713867745045     1.220713939577    12.000000000000
         C           -0.988007249388     0.652716254955     0.438276939577    12.000000000000
         C           -2.148063249388     0.809341254955    -0.298808060423    12.000000000000
         C           -2.344951249388     0.075477254955    -1.455912060423    12.000000000000
         C           -1.369648249388    -0.809850745045    -1.882735060423    12.000000000000
         H           -0.828362249388     1.227932254955     1.336445939577     1.007825032230
         H            0.562194750612    -1.641696745045    -1.507721060423     1.007825032230
         O            1.683387750612     1.835592254955     0.798064939577    15.994914619570
         H            2.580479750612    -1.726955745045     1.540787939577     1.007825032230
         H            1.406037750612    -2.442295745045     0.422179939577     1.007825032230
         H            0.906759750612    -2.010400745045     2.062974939577     1.007825032230
         H           -2.901793249388     1.506742254955     0.034905939577     1.007825032230
         H           -1.511651249388    -1.376062745045    -2.791429060423     1.007825032230
         H           -3.252466249388     0.197027254955    -2.028017060423     1.007825032230
         H            2.810819750612     0.408541254955     1.693664939577     1.007825032230

  Charge       = 0
  Multiplicity = 1
  Basis Set: 6-311+G*
    Blend: 6-311+G*
  Basis Set: (6-311+G* AUX)
    Blend: HEAVY-AUG-CC-PVTZ-JKFIT

    Orbital Energies [Eh]
    ---------------------

    Doubly Occupied:

       1A    -19.216808     2A    -14.478278     3A    -10.385602
       4A    -10.334958     5A    -10.332062     6A    -10.297033
       7A    -10.294724     8A    -10.292662     9A    -10.291854
      10A    -10.291420    11A     -1.153586    12A     -1.066263
      13A     -0.967843    14A     -0.864882    15A     -0.861137
      16A     -0.820851    17A     -0.749535    18A     -0.715474
      19A     -0.672143    20A     -0.615844    21A     -0.609569
      22A     -0.576443    23A     -0.573565    24A     -0.543629
      25A     -0.536202    26A     -0.518191    27A     -0.507948
      28A     -0.500182    29A     -0.483936    30A     -0.467200
      31A     -0.450378    32A     -0.440682    33A     -0.366845
      34A     -0.351594    35A     -0.336232    36A     -0.314134

  @DF-RKS Final Energy:  -440.19832473438635

   => Energetics <=

    Nuclear Repulsion Energy =            499.7735057219844634
    One-Electron Energy =               -1586.2164778454148291
    Two-Electron Energy =                 689.2042281721229529
    DFT Exchange-Correlation Energy =     -42.9494383219781497
    Empirical Dispersion Energy =          -0.0101424611008621
    VV10 Nonlocal Energy =                  0.0000000000000000
    Total Energy =                       -440.1983247343864036
 Dipole X            :          0.0346442           -0.2090811           -0.1744369
 Dipole Y            :          3.9667831           -5.4809648           -1.5141817
 Dipole Z            :         -0.5604986            0.7176474            0.1571488
 Magnitude           :                                                    1.5322762
*** Psi4 exiting successfully. Buy a developer a beer!
