   * xtb version 6.5.0 (97a52f5) compiled by 'conda@d2599ee0d4f4' on 2022-05-15
          program call               : /home/liuchw/anaconda3/envs/xtbenv/bin/xtb --gfn 2 --chrg 0 --uhf 0 3_24_Index_0-opt-2-3-247_preQMOPTprefit_xyzformat.xyz --opt --input xtb-opt-2-3-247_constr.txt

   ID    Z sym.   atoms
    1    6 C      1, 3-9
    2    7 N      2
    3    1 H      10, 11, 13-19
    4    8 O      12
constraining angle 1 2 3 4 to  247.0246673°, actual value: -112.9753327°
constraining angle 1 2 5 14 to  220.9894611°, actual value: -139.0105389°
constraining angle 12 1 2 3 to  357.9947134°, actual value:   -2.0052866°

          :  Hamiltonian                  GFN2-xTB          :
 * total energy  :   -28.6899807 Eh     change       -0.1234604E-09 Eh
 * total energy  :   -28.6967588 Eh     change       -0.6778125E-02 Eh
 * total energy  :   -28.6976980 Eh     change       -0.9392262E-03 Eh
 * total energy  :   -28.6976295 Eh     change        0.6848344E-04 Eh
 * total energy  :   -28.6981647 Eh     change       -0.5352006E-03 Eh
 * total energy  :   -28.6983206 Eh     change       -0.1558727E-03 Eh
 * total energy  :   -28.6984666 Eh     change       -0.1459495E-03 Eh
 * total energy  :   -28.6985844 Eh     change       -0.1178716E-03 Eh
 * total energy  :   -28.6986293 Eh     change       -0.4488988E-04 Eh
 * total energy  :   -28.6986424 Eh     change       -0.1308511E-04 Eh
 * total energy  :   -28.6986462 Eh     change       -0.3741774E-05 Eh
 * total energy  :   -28.6986481 Eh     change       -0.1921677E-05 Eh
   *** GEOMETRY OPTIMIZATION CONVERGED AFTER 12 ITERATIONS ***

 final structure:
================
19
 xtb: 6.5.0 (97a52f5)
C            1.85018218974947       -1.45500486910403        0.64077953518535
N            1.01757363346162       -0.45464205693486        0.99521596074884
C           -0.16393356258762       -0.21436870825367        0.23789131155797
C           -0.30381324618062        0.95234002994085       -0.50204912762776
C            1.35860936927486        0.50395567432638        2.01963550053818
C           -1.16014142812332       -1.18025013997734        0.20554505563753
C           -2.30156090097243       -0.96708475544234       -0.54642469332065
C           -2.45256992803996        0.20568899882627       -1.26654304917968
C           -1.45195279055251        1.16248199711941       -1.24424995921925
H           -1.02941830516756       -2.09585862607296        0.76117574636638
H            0.48226309595667        1.69284202705321       -0.49948251943278
O            1.68239441988182       -2.22668475815969       -0.26957921749886
H            2.15271742245192        0.09927285084096        2.64489697266617
H            0.48320671542559        0.70373687721214        2.63960799982579
H            1.70119841216172        1.44870680605214        1.58878414044043
H           -3.07441365076007       -1.72066005512697       -0.57056337234479
H           -1.55893127378423        2.07205145897542       -1.81661033339509
H           -3.34487500027106        0.37116360750794       -1.85145540100824
H            2.73714883807640       -1.49890236878352        1.30401146005985

          :  Hamiltonian                  GFN2-xTB          :
         :: total energy             -28.698648073152 Eh    ::
         :: gradient norm              0.000628142694 Eh/a0 ::
         :: HOMO-LUMO gap              4.195482522605 eV    ::
         :: SCC energy               -29.149433027184 Eh    ::
         :: -> dispersion             -0.016049903148 Eh    ::
         :: repulsion energy           0.450713724464 Eh    ::

    * Orbital Energies and Occupations

         #    Occupation            Energy/Eh            Energy/eV
      -------------------------------------------------------------
         1        2.0000           -0.6969496             -18.9650
       ...           ...                  ...                  ...
        14        2.0000           -0.5089777             -13.8500
        15        2.0000           -0.5051844             -13.7468
        16        2.0000           -0.5016610             -13.6509
        17        2.0000           -0.4930820             -13.4174
        18        2.0000           -0.4898048             -13.3283
        19        2.0000           -0.4859220             -13.2226
        20        2.0000           -0.4843388             -13.1795
        21        2.0000           -0.4421514             -12.0316
        22        2.0000           -0.4386071             -11.9351
        23        2.0000           -0.4192279             -11.4078
        24        2.0000           -0.4135243             -11.2526
        25        2.0000           -0.3971177             -10.8061
        26        2.0000           -0.3903478             -10.6219 (HOMO)
        27                         -0.2361666              -6.4264 (LUMO)
        28                         -0.2318022              -6.3077
        29                         -0.2059621              -5.6045
        30                         -0.1020230              -2.7762
        31                         -0.0034453              -0.0938
        32                          0.0778766               2.1191
        33                          0.1109570               3.0193
        34                          0.1283582               3.4928
        35                          0.1472704               4.0074
        36                          0.1604132               4.3651
        37                          0.1673170               4.5529
       ...                                ...                  ...
        49                          0.6690333              18.2053
      -------------------------------------------------------------
                  HL-Gap            0.1541811 Eh            4.1955 eV

     #   Z          covCN         q      C6AA      α(0)
     1   6 C        2.713     0.249    22.819     7.819
     2   7 N        2.735    -0.088    22.964     7.117
     3   6 C        2.928     0.073    26.370     8.421
     4   6 C        2.922    -0.039    28.974     8.827
     5   6 C        3.698    -0.045    21.557     6.641
     6   6 C        2.923    -0.031    28.761     8.795
     7   6 C        2.921    -0.025    28.629     8.774
     8   6 C        2.920    -0.030    28.748     8.793
     9   6 C        2.921    -0.028    28.688     8.783
    10   1 H        0.926     0.049     2.329     2.386
    11   1 H        0.926     0.037     2.488     2.467
    12   8 O        0.857    -0.409    21.855     6.268
    13   1 H        0.925     0.059     2.213     2.327
    14   1 H        0.924     0.058     2.227     2.334
    15   1 H        0.924     0.053     2.280     2.361
    16   1 H        0.926     0.042     2.426     2.436
    17   1 H        0.926     0.039     2.468     2.457
    18   1 H        0.926     0.039     2.466     2.456
    19   1 H        0.922    -0.002     3.096     2.752

Wiberg/Mayer (AO) data.
largest (>0.10) Wiberg bond orders for each atom

     #   Z sym  total        # sym  WBO       # sym  WBO       # sym  WBO
 ---------------------------------------------------------------------------
     1   6 C    3.955 --    12 O    1.729     2 N    1.248    19 H    0.917
     2   7 N    3.513 --     1 C    1.248     5 C    0.997     3 C    0.992
                            12 O    0.208
     3   6 C    3.963 --     6 C    1.402     4 C    1.401     2 N    0.992
                             8 C    0.106
     4   6 C    3.992 --     9 C    1.445     3 C    1.401    11 H    0.968
                             7 C    0.111
     5   6 C    3.972 --     2 N    0.997    14 H    0.980    13 H    0.977
                            15 H    0.974
     6   6 C    3.991 --     7 C    1.443     3 C    1.402    10 H    0.968
                             9 C    0.111
     7   6 C    3.992 --     6 C    1.443     8 C    1.440    16 H    0.970
                             4 C    0.111
     8   6 C    3.992 --     7 C    1.440     9 C    1.437    18 H    0.971
                             3 C    0.106
     9   6 C    3.992 --     4 C    1.445     8 C    1.437    17 H    0.970
                             6 C    0.111
    10   1 H    0.998 --     6 C    0.968
    11   1 H    0.999 --     4 C    0.968
    12   8 O    2.034 --     1 C    1.729     2 N    0.208
    13   1 H    0.996 --     5 C    0.977
    14   1 H    0.997 --     5 C    0.980
    15   1 H    0.997 --     5 C    0.974
    16   1 H    0.998 --     7 C    0.970
    17   1 H    0.998 --     9 C    0.970
    18   1 H    0.998 --     8 C    0.971
    19   1 H    0.999 --     1 C    0.917
 ---------------------------------------------------------------------------

molecular dipole:
                 x           y           z       tot (Debye)
 q only:       -0.536       1.215       0.850
   full:       -0.384       1.354       1.032       4.436

           -------------------------------------------------
          | TOTAL ENERGY              -28.698648073152 Eh   |
          | GRADIENT NORM               0.000628142694 Eh/α |
          | HOMO-LUMO GAP               4.195482522605 eV   |
           -------------------------------------------------

 * finished run on 2023/11/18 at 08:20:57.235
