                               Psi4 1.6 release

  ==> Input File <==

--------------------------------------------------------------------------
molecule {
0 1
 C    1.435413    0.688461    1.987006
 N    0.994588   -0.203880    1.064033
 C   -0.189455   -0.050498    0.306088
 C   -0.645866   -1.084845   -0.512819
 C    1.768212   -1.417438    0.892296
 C   -0.904977    1.147711    0.311365
 C   -2.036168    1.296889   -0.468562
 C   -2.481471    0.266990   -1.278217
 C   -1.780023   -0.924191   -1.288838
 H   -0.579453    1.965609    0.929324
 H   -0.152319   -2.042235   -0.539338
 O    0.953124    1.746440    2.304477
 H    2.768978   -1.273524    1.294263
 H    1.848435   -1.668978   -0.164460
 H    1.299462   -2.256907    1.414512
 H   -2.570258    2.235018   -0.442908
 H   -2.112388   -1.744209   -1.908642
 H   -3.362776    0.388931   -1.889358
 H    2.370626    0.329443    2.460366
}
memory 20GB
set_num_threads(5)
psi4_io.set_default_path("/scratch/liuchw/Psi4-3_24_Index_0-farH_in17")
set freeze_core True
E, wfn = energy('wb97x-d/6-311+G*',return_wfn=True)
oeprop(wfn,"WIBERG_LOWDIN_INDICES")
clean()
--------------------------------------------------------------------------

    Molecular point group: c1

    Geometry (in Angstrom), charge = 0, multiplicity = 1:

       Center              X                  Y                   Z               Mass
    ------------   -----------------  -----------------  -----------------  -----------------
         C            1.652585302863     0.539962293819     1.599778080565    12.000000000000
         N            1.211760302863    -0.352378706181     0.676805080565    14.003074004430
         C            0.027717302863    -0.198996706181    -0.081139919435    12.000000000000
         C           -0.428693697137    -1.233343706181    -0.900046919435    12.000000000000
         C            1.985384302863    -1.565936706181     0.505068080565    12.000000000000
         C           -0.687804697137     0.999212293819    -0.075862919435    12.000000000000
         C           -1.818995697137     1.148390293819    -0.855789919435    12.000000000000
         C           -2.264298697137     0.118491293819    -1.665444919435    12.000000000000
         C           -1.562850697137    -1.072689706181    -1.676065919435    12.000000000000
         H           -0.362280697137     1.817110293819     0.542096080565     1.007825032230
         H            0.064853302863    -2.190733706181    -0.926565919435     1.007825032230
         O            1.170296302863     1.597941293819     1.917249080565    15.994914619570
         H            2.986150302863    -1.422022706181     0.907035080565     1.007825032230
         H            2.065607302863    -1.817476706181    -0.551687919435     1.007825032230
         H            1.516634302863    -2.405405706181     1.027284080565     1.007825032230
         H           -2.353085697137     2.086519293819    -0.830135919435     1.007825032230
         H           -1.895215697137    -1.892707706181    -2.295869919435     1.007825032230
         H           -3.145603697137     0.240432293819    -2.276585919435     1.007825032230
         H            2.587798302863     0.180944293819     2.073138080565     1.007825032230

  Charge       = 0
  Multiplicity = 1
  Basis Set: 6-311+G*
    Blend: 6-311+G*
  Basis Set: (6-311+G* AUX)
    Blend: HEAVY-AUG-CC-PVTZ-JKFIT

    Orbital Energies [Eh]
    ---------------------

    Doubly Occupied:

       1A    -19.227670     2A    -14.492084     3A    -10.394332
       4A    -10.342092     5A    -10.335701     6A    -10.294563
       7A    -10.292444     8A    -10.288314     9A    -10.285605
      10A    -10.281621    11A     -1.162227    12A     -1.076188
      13A     -0.965737    14A     -0.866880    15A     -0.859287
      16A     -0.823899    17A     -0.755394    18A     -0.709158
      19A     -0.674421    20A     -0.619311    21A     -0.607769
      22A     -0.579464    23A     -0.576356    24A     -0.550608
      25A     -0.536047    26A     -0.516005    27A     -0.509733
      28A     -0.498900    29A     -0.494675    30A     -0.467527
      31A     -0.452290    32A     -0.434284    33A     -0.391240
      34A     -0.350158    35A     -0.336653    36A     -0.304812

  @DF-RKS Final Energy:  -440.19813943008097

   => Energetics <=

    Nuclear Repulsion Energy =            498.7676575919363131
    One-Electron Energy =               -1584.0547697089759822
    Two-Electron Energy =                 688.0528624699962847
    DFT Exchange-Correlation Energy =     -42.9540355892411725
    Empirical Dispersion Energy =          -0.0098541937964307
    VV10 Nonlocal Energy =                  0.0000000000000000
    Total Energy =                       -440.1981394300810280
 Dipole X            :         -0.9680854            1.3753631            0.4072777
 Dipole Y            :          3.7337372           -5.0567651           -1.3230278
 Dipole Z            :          1.6150325           -2.1782688           -0.5632363
 Magnitude           :                                                    1.4944942
*** Psi4 exiting successfully. Buy a developer a beer!
