   * xtb version 6.5.0 (97a52f5) compiled by 'conda@d2599ee0d4f4' on 2022-05-15
          program call               : /home/liuchw/anaconda3/envs/xtbenv/bin/xtb --gfn 2 --chrg 0 --uhf 0 3_24_Index_0-opt-2-5-221_preQMOPTprefit_xyzformat.xyz --opt --input xtb-opt-2-5-221_constr.txt

   ID    Z sym.   atoms
    1    6 C      1, 3-9
    2    7 N      2
    3    1 H      10, 11, 13-19
    4    8 O      12
constraining angle 1 2 5 14 to  220.9872367°, actual value: -139.0127633°
constraining angle 1 2 3 4 to   37.0794265°, actual value:   37.0794265°
constraining angle 12 1 2 3 to  357.9977122°, actual value:   -2.0022878°

          :  Hamiltonian                  GFN2-xTB          :
 * total energy  :   -28.6898383 Eh     change       -0.1944400E-09 Eh
 * total energy  :   -28.6983305 Eh     change       -0.8492216E-02 Eh
 * total energy  :   -28.6994413 Eh     change       -0.1110768E-02 Eh
 * total energy  :   -28.6990132 Eh     change        0.4281261E-03 Eh
 * total energy  :   -28.7000346 Eh     change       -0.1021443E-02 Eh
 * total energy  :   -28.7001868 Eh     change       -0.1521720E-03 Eh
 * total energy  :   -28.7002909 Eh     change       -0.1040767E-03 Eh
 * total energy  :   -28.7003716 Eh     change       -0.8074295E-04 Eh
 * total energy  :   -28.7004091 Eh     change       -0.3751497E-04 Eh
 * total energy  :   -28.7004242 Eh     change       -0.1507899E-04 Eh
 * total energy  :   -28.7004316 Eh     change       -0.7347685E-05 Eh
 * total energy  :   -28.7004343 Eh     change       -0.2733145E-05 Eh
   *** GEOMETRY OPTIMIZATION CONVERGED AFTER 12 ITERATIONS ***

 final structure:
================
19
 xtb: 6.5.0 (97a52f5)
C            2.26723348628587        0.27126453869252        0.49535890797290
N            1.09415230258821       -0.27222223554437        0.89820605578676
C           -0.10739793147697       -0.09492640013753        0.17202268937547
C           -0.09268574873810       -0.07301711261852       -1.21990263133402
C            1.02677501307108       -0.97854115385310        2.15884270176537
C           -1.32261946781880        0.02954630624025        0.83996008619978
C           -2.49685613037467        0.18479682288300        0.12553325432719
C           -2.47802607399588        0.21572906038740       -1.25768791456108
C           -1.27149362312281        0.08758039422519       -1.92418130662582
H           -1.36200619006665        0.01846079910425        1.91786444994489
H            0.84088320263259       -0.17220814881177       -1.74729211010980
O            2.46585709241248        0.92043343076990       -0.49995470392114
H            2.03082959225083       -1.27965833301747        2.45529774879806
H            0.41534573150601       -1.87426169245324        2.04484387288173
H            0.60861827007496       -0.35519648819026        2.95323656604314
H           -3.43161681944179        0.28394898268940        0.65765482164539
H           -1.24503642657135        0.10488888998786       -3.00340024934150
H           -3.39686878380133        0.33735427933488       -1.81114864225946
H            3.07859451458618        0.04481407031153        1.21533140341227

          :  Hamiltonian                  GFN2-xTB          :
         :: total energy             -28.700434284386 Eh    ::
         :: gradient norm              0.000426503890 Eh/a0 ::
         :: HOMO-LUMO gap              3.976884131296 eV    ::
         :: SCC energy               -29.150415312147 Eh    ::
         :: -> dispersion             -0.015978833868 Eh    ::
         :: repulsion energy           0.449925710826 Eh    ::

    * Orbital Energies and Occupations

         #    Occupation            Energy/Eh            Energy/eV
      -------------------------------------------------------------
         1        2.0000           -0.7023976             -19.1132
       ...           ...                  ...                  ...
        14        2.0000           -0.5134702             -13.9722
        15        2.0000           -0.5080009             -13.8234
        16        2.0000           -0.4985908             -13.5673
        17        2.0000           -0.4945994             -13.4587
        18        2.0000           -0.4858404             -13.2204
        19        2.0000           -0.4834320             -13.1549
        20        2.0000           -0.4801643             -13.0659
        21        2.0000           -0.4407919             -11.9946
        22        2.0000           -0.4398310             -11.9684
        23        2.0000           -0.4248675             -11.5612
        24        2.0000           -0.4098071             -11.1514
        25        2.0000           -0.3976370             -10.8203
        26        2.0000           -0.3855960             -10.4926 (HOMO)
        27                         -0.2394482              -6.5157 (LUMO)
        28                         -0.2274763              -6.1899
        29                         -0.2004738              -5.4552
        30                         -0.0945618              -2.5732
        31                         -0.0063224              -0.1720
        32                          0.0708716               1.9285
        33                          0.1091334               2.9697
        34                          0.1318112               3.5868
        35                          0.1490020               4.0545
        36                          0.1584058               4.3104
        37                          0.1688897               4.5957
       ...                                ...                  ...
        49                          0.6702887              18.2395
      -------------------------------------------------------------
                  HL-Gap            0.1461478 Eh            3.9769 eV

     #   Z          covCN         q      C6AA      α(0)
     1   6 C        2.712     0.248    22.838     7.823
     2   7 N        2.734    -0.077    22.736     7.082
     3   6 C        2.920     0.069    26.456     8.435
     4   6 C        2.922    -0.037    28.929     8.820
     5   6 C        3.701    -0.048    21.600     6.646
     6   6 C        2.922    -0.049    29.212     8.863
     7   6 C        2.921    -0.029    28.735     8.790
     8   6 C        2.918    -0.034    28.838     8.806
     9   6 C        2.921    -0.027    28.665     8.780
    10   1 H        0.926     0.035     2.521     2.483
    11   1 H        0.926     0.063     2.159     2.298
    12   8 O        0.857    -0.400    21.682     6.243
    13   1 H        0.925     0.059     2.216     2.328
    14   1 H        0.924     0.062     2.173     2.305
    15   1 H        0.924     0.056     2.251     2.346
    16   1 H        0.926     0.034     2.524     2.485
    17   1 H        0.926     0.040     2.453     2.449
    18   1 H        0.926     0.035     2.516     2.480
    19   1 H        0.922     0.001     3.050     2.731

Wiberg/Mayer (AO) data.
largest (>0.10) Wiberg bond orders for each atom

     #   Z sym  total        # sym  WBO       # sym  WBO       # sym  WBO
 ---------------------------------------------------------------------------
     1   6 C    3.954 --    12 O    1.736     2 N    1.235    19 H    0.917
     2   7 N    3.542 --     1 C    1.235     3 C    1.029     5 C    0.999
                            12 O    0.193
     3   6 C    3.960 --     6 C    1.384     4 C    1.383     2 N    1.029
                             8 C    0.101
     4   6 C    3.989 --     9 C    1.450     3 C    1.383    11 H    0.965
                             7 C    0.109
     5   6 C    3.970 --     2 N    0.999    14 H    0.979    13 H    0.977
                            15 H    0.973
     6   6 C    3.991 --     7 C    1.448     3 C    1.384    10 H    0.967
                             9 C    0.108
     7   6 C    3.992 --     6 C    1.448     8 C    1.436    16 H    0.971
                             4 C    0.109
     8   6 C    3.992 --     7 C    1.436     9 C    1.434    18 H    0.971
                             3 C    0.101
     9   6 C    3.992 --     4 C    1.450     8 C    1.434    17 H    0.970
                             6 C    0.108
    10   1 H    0.999 --     6 C    0.967
    11   1 H    0.996 --     4 C    0.965
    12   8 O    2.045 --     1 C    1.736     2 N    0.193
    13   1 H    0.996 --     5 C    0.977
    14   1 H    0.996 --     5 C    0.979
    15   1 H    0.997 --     5 C    0.973
    16   1 H    0.998 --     7 C    0.971
    17   1 H    0.998 --     9 C    0.970
    18   1 H    0.999 --     8 C    0.971
    19   1 H    0.999 --     1 C    0.917
 ---------------------------------------------------------------------------

molecular dipole:
                 x           y           z       tot (Debye)
 q only:       -0.770      -0.848       0.921
   full:       -0.729      -0.941       1.184       4.267

           -------------------------------------------------
          | TOTAL ENERGY              -28.700434284386 Eh   |
          | GRADIENT NORM               0.000426503890 Eh/α |
          | HOMO-LUMO GAP               3.976884131296 eV   |
           -------------------------------------------------

 * finished run on 2023/11/18 at 08:21:20.856
