   * xtb version 6.5.0 (97a52f5) compiled by 'conda@d2599ee0d4f4' on 2022-05-15
          program call               : /home/liuchw/anaconda3/envs/xtbenv/bin/xtb --gfn 2 --chrg 0 --uhf 0 3_24_Index_0-opt-2-3-067_preQMOPTprefit_xyzformat.xyz --opt --input xtb-opt-2-3-067_constr.txt

   ID    Z sym.   atoms
    1    6 C      1, 3-9
    2    7 N      2
    3    1 H      10, 11, 13-19
    4    8 O      12
constraining angle 1 2 3 4 to   67.0261638°, actual value:   67.0261638°
constraining angle 1 2 5 14 to  220.9863627°, actual value: -139.0136373°
constraining angle 12 1 2 3 to  357.9955399°, actual value:   -2.0044601°

          :  Hamiltonian                  GFN2-xTB          :
 * total energy  :   -28.6902229 Eh     change       -0.1620890E-09 Eh
 * total energy  :   -28.6970731 Eh     change       -0.6850178E-02 Eh
 * total energy  :   -28.6977911 Eh     change       -0.7180324E-03 Eh
 * total energy  :   -28.6976076 Eh     change        0.1835513E-03 Eh
 * total energy  :   -28.6983318 Eh     change       -0.7242440E-03 Eh
 * total energy  :   -28.6984321 Eh     change       -0.1003103E-03 Eh
 * total energy  :   -28.6985220 Eh     change       -0.8989531E-04 Eh
 * total energy  :   -28.6985793 Eh     change       -0.5732994E-04 Eh
 * total energy  :   -28.6986059 Eh     change       -0.2658545E-04 Eh
 * total energy  :   -28.6986207 Eh     change       -0.1473645E-04 Eh
 * total energy  :   -28.6986231 Eh     change       -0.2447238E-05 Eh
   *** GEOMETRY OPTIMIZATION CONVERGED AFTER 11 ITERATIONS ***

 final structure:
================
19
 xtb: 6.5.0 (97a52f5)
C            2.15095582648982        0.55279825762714        0.68349953354134
N            1.10317734637653       -0.26533024749415        0.91128989943118
C           -0.10803579598462       -0.08082970600985        0.18501630974380
C           -0.12465677836223       -0.31928000388080       -1.18225017265537
C            1.09613448459003       -1.23240376281198        1.98306020040663
C           -1.27230229118631        0.30142166060284        0.83777593404532
C           -2.44496722550975        0.45229349629515        0.11974497546903
C           -2.46145469770459        0.22151950121628       -1.24544436219576
C           -1.29958093062145       -0.15953769733970       -1.89477946988765
H           -1.25895827033001        0.49419880285196        1.90020460819395
H            0.78759215690787       -0.60863160370819       -1.68051067696016
O            2.18813957425574        1.44368237161792       -0.12744458078723
H            2.11877572036930       -1.42461486492438        2.30337322777357
H            0.65166871493235       -2.16381254255738        1.62863993035458
H            0.52137484243093       -0.87808808699120        2.84305988868071
H           -3.34770841243783        0.75640190624292        0.62863901395688
H           -1.30828072451713       -0.33922232720765       -2.95939971879403
H           -3.37852745427655        0.34189460159128       -1.80240549048919
H            3.01033690457795        0.30632822487972        1.33851594017237

          :  Hamiltonian                  GFN2-xTB          :
         :: total energy             -28.698623100760 Eh    ::
         :: gradient norm              0.000690362912 Eh/a0 ::
         :: HOMO-LUMO gap              4.196380977224 eV    ::
         :: SCC energy               -29.149400402624 Eh    ::
         :: -> dispersion             -0.016043465489 Eh    ::
         :: repulsion energy           0.450706037326 Eh    ::

    * Orbital Energies and Occupations

         #    Occupation            Energy/Eh            Energy/eV
      -------------------------------------------------------------
         1        2.0000           -0.6967947             -18.9607
       ...           ...                  ...                  ...
        14        2.0000           -0.5089355             -13.8488
        15        2.0000           -0.5052302             -13.7480
        16        2.0000           -0.5019237             -13.6580
        17        2.0000           -0.4930244             -13.4159
        18        2.0000           -0.4898701             -13.3300
        19        2.0000           -0.4862573             -13.2317
        20        2.0000           -0.4847697             -13.1913
        21        2.0000           -0.4423903             -12.0381
        22        2.0000           -0.4387550             -11.9391
        23        2.0000           -0.4192233             -11.4076
        24        2.0000           -0.4139848             -11.2651
        25        2.0000           -0.3970176             -10.8034
        26        2.0000           -0.3905025             -10.6261 (HOMO)
        27                         -0.2362884              -6.4297 (LUMO)
        28                         -0.2321906              -6.3182
        29                         -0.2059353              -5.6038
        30                         -0.1023757              -2.7858
        31                         -0.0032365              -0.0881
        32                          0.0776217               2.1122
        33                          0.1108517               3.0164
        34                          0.1281214               3.4864
        35                          0.1469219               3.9979
        36                          0.1603416               4.3631
        37                          0.1672298               4.5506
       ...                                ...                  ...
        49                          0.6681981              18.1826
      -------------------------------------------------------------
                  HL-Gap            0.1542142 Eh            4.1964 eV

     #   Z          covCN         q      C6AA      α(0)
     1   6 C        2.713     0.249    22.819     7.819
     2   7 N        2.735    -0.089    22.968     7.118
     3   6 C        2.928     0.074    26.352     8.419
     4   6 C        2.923    -0.031    28.773     8.796
     5   6 C        3.698    -0.045    21.558     6.641
     6   6 C        2.922    -0.039    28.979     8.828
     7   6 C        2.921    -0.027    28.687     8.783
     8   6 C        2.920    -0.030    28.749     8.793
     9   6 C        2.921    -0.025    28.630     8.774
    10   1 H        0.926     0.037     2.484     2.465
    11   1 H        0.926     0.049     2.330     2.387
    12   8 O        0.857    -0.409    21.863     6.269
    13   1 H        0.925     0.059     2.210     2.325
    14   1 H        0.924     0.058     2.227     2.334
    15   1 H        0.924     0.053     2.279     2.361
    16   1 H        0.926     0.039     2.466     2.456
    17   1 H        0.926     0.042     2.426     2.436
    18   1 H        0.926     0.039     2.465     2.455
    19   1 H        0.922    -0.003     3.103     2.755

Wiberg/Mayer (AO) data.
largest (>0.10) Wiberg bond orders for each atom

     #   Z sym  total        # sym  WBO       # sym  WBO       # sym  WBO
 ---------------------------------------------------------------------------
     1   6 C    3.955 --    12 O    1.729     2 N    1.249    19 H    0.917
     2   7 N    3.512 --     1 C    1.249     5 C    0.996     3 C    0.992
                            12 O    0.208
     3   6 C    3.964 --     4 C    1.402     6 C    1.402     2 N    0.992
                             8 C    0.106
     4   6 C    3.991 --     9 C    1.443     3 C    1.402    11 H    0.968
                             7 C    0.111
     5   6 C    3.971 --     2 N    0.996    14 H    0.980    13 H    0.977
                            15 H    0.974
     6   6 C    3.992 --     7 C    1.445     3 C    1.402    10 H    0.968
                             9 C    0.111
     7   6 C    3.992 --     6 C    1.445     8 C    1.437    16 H    0.971
                             4 C    0.111
     8   6 C    3.992 --     9 C    1.440     7 C    1.437    18 H    0.971
                             3 C    0.106
     9   6 C    3.992 --     4 C    1.443     8 C    1.440    17 H    0.970
                             6 C    0.111
    10   1 H    0.999 --     6 C    0.968
    11   1 H    0.998 --     4 C    0.968
    12   8 O    2.033 --     1 C    1.729     2 N    0.208
    13   1 H    0.996 --     5 C    0.977
    14   1 H    0.997 --     5 C    0.980
    15   1 H    0.997 --     5 C    0.974
    16   1 H    0.998 --     7 C    0.971
    17   1 H    0.998 --     9 C    0.970
    18   1 H    0.998 --     8 C    0.971
    19   1 H    0.999 --     1 C    0.917
 ---------------------------------------------------------------------------

molecular dipole:
                 x           y           z       tot (Debye)
 q only:       -0.809      -1.202       0.658
   full:       -0.731      -1.332       0.886       4.470

           -------------------------------------------------
          | TOTAL ENERGY              -28.698623100760 Eh   |
          | GRADIENT NORM               0.000690362912 Eh/α |
          | HOMO-LUMO GAP               4.196380977224 eV   |
           -------------------------------------------------

 * finished run on 2023/11/18 at 08:18:13.639
