                               Psi4 1.6 release

  ==> Input File <==

--------------------------------------------------------------------------
molecule {
0 1
 C    2.238525    0.325827    0.524993
 N    1.082372   -0.270526    0.902980
 C   -0.115945   -0.124177    0.167391
 C   -0.086750   -0.073732   -1.223255
 C    1.056560   -0.980996    2.166483
 C   -1.336657   -0.000628    0.826646
 C   -2.506512    0.145289    0.103742
 C   -2.475530    0.184519   -1.279248
 C   -1.261498    0.079905   -1.936091
 H   -1.380010    0.002102    1.905271
 H    0.853019   -0.154989   -1.742784
 O    2.425211    1.003051   -0.453891
 H    1.909474   -1.657888    2.226688
 H    0.140172   -1.561248    2.238727
 H    1.098088   -0.290430    3.013800
 H   -3.446079    0.238793    0.628276
 H   -1.225339    0.114866   -3.014580
 H   -3.390646    0.302017   -1.839730
 H    3.045228    0.117027    1.255167
}
memory 20GB
set_num_threads(5)
psi4_io.set_default_path("/scratch/liuchw/Psi4-3_24_Index_0-farH_in17")
set freeze_core True
E, wfn = energy('wb97x-d/6-311+G*',return_wfn=True)
oeprop(wfn,"WIBERG_LOWDIN_INDICES")
clean()
--------------------------------------------------------------------------

    Molecular point group: c1

    Geometry (in Angstrom), charge = 0, multiplicity = 1:

       Center              X                  Y                   Z               Mass
    ------------   -----------------  -----------------  -----------------  -----------------
         C            2.255708502359     0.296099538170     0.507965596326    12.000000000000
         N            1.099555502359    -0.300253461830     0.885952596326    14.003074004430
         C           -0.098761497641    -0.153904461830     0.150363596326    12.000000000000
         C           -0.069566497641    -0.103459461830    -1.240282403674    12.000000000000
         C            1.073743502359    -1.010723461830     2.149455596326    12.000000000000
         C           -1.319473497641    -0.030355461830     0.809618596326    12.000000000000
         C           -2.489328497641     0.115561538170     0.086714596326    12.000000000000
         C           -2.458346497641     0.154791538170    -1.296275403674    12.000000000000
         C           -1.244314497641     0.050177538170    -1.953118403674    12.000000000000
         H           -1.362826497641    -0.027625461830     1.888243596326     1.007825032230
         H            0.870202502359    -0.184716461830    -1.759811403674     1.007825032230
         O            2.442394502359     0.973323538170    -0.470918403674    15.994914619570
         H            1.926657502359    -1.687615461830     2.209660596326     1.007825032230
         H            0.157355502359    -1.590975461830     2.221699596326     1.007825032230
         H            1.115271502359    -0.320157461830     2.996772596326     1.007825032230
         H           -3.428895497641     0.209065538170     0.611248596326     1.007825032230
         H           -1.208155497641     0.085138538170    -3.031607403674     1.007825032230
         H           -3.373462497641     0.272289538170    -1.856757403674     1.007825032230
         H            3.062411502359     0.087299538170     1.238139596326     1.007825032230

  Charge       = 0
  Multiplicity = 1
  Basis Set: 6-311+G*
    Blend: 6-311+G*
  Basis Set: (6-311+G* AUX)
    Blend: HEAVY-AUG-CC-PVTZ-JKFIT

    Orbital Energies [Eh]
    ---------------------

    Doubly Occupied:

       1A    -19.223115     2A    -14.483105     3A    -10.389836
       4A    -10.337460     5A    -10.333642     6A    -10.294941
       7A    -10.292999     8A    -10.289851     9A    -10.287518
      10A    -10.286847    11A     -1.158311    12A     -1.070813
      13A     -0.966075    14A     -0.865546    15A     -0.859620
      16A     -0.821792    17A     -0.751749    18A     -0.711933
      19A     -0.671995    20A     -0.616553    21A     -0.608899
      22A     -0.576393    23A     -0.575223    24A     -0.545829
      25A     -0.536861    26A     -0.516245    27A     -0.509442
      28A     -0.501844    29A     -0.488025    30A     -0.466300
      31A     -0.450742    32A     -0.437642    33A     -0.379875
      34A     -0.353340    35A     -0.335075    36A     -0.306093

  @DF-RKS Final Energy:  -440.19775111470824

   => Energetics <=

    Nuclear Repulsion Energy =            499.5121544771186564
    One-Electron Energy =               -1585.6472781810434753
    Two-Electron Energy =                 688.8998222867094228
    DFT Exchange-Correlation Energy =     -42.9523730171261562
    Empirical Dispersion Energy =          -0.0100766803666042
    VV10 Nonlocal Energy =                  0.0000000000000000
    Total Energy =                       -440.1977511147081259
 Dipole X            :          1.5206133           -2.0927410           -0.5721277
 Dipole Y            :          2.0824807           -2.9543208           -0.8718401
 Dipole Z            :         -3.1402877            4.2302652            1.0899775
 Magnitude           :                                                    1.5084715
*** Psi4 exiting successfully. Buy a developer a beer!
