   * xtb version 6.5.0 (97a52f5) compiled by 'conda@d2599ee0d4f4' on 2022-05-15
          program call               : /home/liuchw/anaconda3/envs/xtbenv/bin/xtb --gfn 2 --chrg 0 --uhf 0 3_24_Index_0-opt-2-3-277_preQMOPTprefit_xyzformat.xyz --opt --input xtb-opt-2-3-277_constr.txt

   ID    Z sym.   atoms
    1    6 C      1, 3-9
    2    7 N      2
    3    1 H      10, 11, 13-19
    4    8 O      12
constraining angle 1 2 3 4 to  276.9899456°, actual value:  -83.0100544°
constraining angle 1 2 5 14 to  220.9914192°, actual value: -139.0085808°
constraining angle 12 1 2 3 to  358.0003854°, actual value:   -1.9996146°

          :  Hamiltonian                  GFN2-xTB          :
 * total energy  :   -28.6901177 Eh     change       -0.1266507E-09 Eh
 * total energy  :   -28.6965690 Eh     change       -0.6451318E-02 Eh
 * total energy  :   -28.6973324 Eh     change       -0.7634041E-03 Eh
 * total energy  :   -28.6970893 Eh     change        0.2431655E-03 Eh
 * total energy  :   -28.6974839 Eh     change       -0.3946364E-03 Eh
 * total energy  :   -28.6974961 Eh     change       -0.1218415E-04 Eh
 * total energy  :   -28.6975040 Eh     change       -0.7944887E-05 Eh
 * total energy  :   -28.6975080 Eh     change       -0.3933499E-05 Eh
 * total energy  :   -28.6975132 Eh     change       -0.5183670E-05 Eh
 * total energy  :   -28.6975151 Eh     change       -0.1973969E-05 Eh
   *** GEOMETRY OPTIMIZATION CONVERGED AFTER 10 ITERATIONS ***

 final structure:
================
19
 xtb: 6.5.0 (97a52f5)
C            2.06306261429551       -1.16856157232118        0.40450029941541
N            1.06846742304524       -0.43399052118179        0.93481820252833
C           -0.12720275913583       -0.21086055761698        0.18428915430164
C           -0.17534072388012        0.80394708423508       -0.75942380712729
C            1.17233600738921        0.23666791036042        2.20773991595535
C           -1.24150556604824       -1.00333306043657        0.41699288992091
C           -2.40365670299593       -0.78021939915168       -0.29980155423357
C           -2.45420977647937        0.23140433424891       -1.24401819106992
C           -1.34002831002495        1.02007572681951       -1.47490515776123
H           -1.18873170799199       -1.79639470254014        1.14818749459799
H            0.70212286249670        1.40663016955343       -0.94023373075481
O            2.03814589720019       -1.70993918883907       -0.67270622897665
H            1.98371162203093       -0.19940286649737        2.78820332235805
H            0.23614575955452        0.12866312789829        2.75764718278116
H            1.36742156963642        1.30529039453745        2.07155116801439
H           -3.26998542445326       -1.40022337060859       -0.12339830358624
H           -1.37657698937781        1.80545107560083       -2.21504317311886
H           -3.36163738805593        0.40201873930083       -1.80369173914820
H            2.93114558279470       -1.23843933336136        1.08987825590360

          :  Hamiltonian                  GFN2-xTB          :
         :: total energy             -28.697515140493 Eh    ::
         :: gradient norm              0.000698987274 Eh/a0 ::
         :: HOMO-LUMO gap              4.276661808689 eV    ::
         :: SCC energy               -29.148440751158 Eh    ::
         :: -> dispersion             -0.016041460632 Eh    ::
         :: repulsion energy           0.450849475472 Eh    ::

    * Orbital Energies and Occupations

         #    Occupation            Energy/Eh            Energy/eV
      -------------------------------------------------------------
         1        2.0000           -0.6940516             -18.8861
       ...           ...                  ...                  ...
        14        2.0000           -0.5060802             -13.7711
        15        2.0000           -0.5055063             -13.7555
        16        2.0000           -0.5033861             -13.6978
        17        2.0000           -0.4927169             -13.4075
        18        2.0000           -0.4905432             -13.3484
        19        2.0000           -0.4887533             -13.2997
        20        2.0000           -0.4855797             -13.2133
        21        2.0000           -0.4436178             -12.0715
        22        2.0000           -0.4391385             -11.9496
        23        2.0000           -0.4160101             -11.3202
        24        2.0000           -0.4153366             -11.3019
        25        2.0000           -0.3955364             -10.7631
        26        2.0000           -0.3931148             -10.6972 (HOMO)
        27                         -0.2359504              -6.4205 (LUMO)
        28                         -0.2344123              -6.3787
        29                         -0.2066431              -5.6230
        30                         -0.1055581              -2.8724
        31                         -0.0032933              -0.0896
        32                          0.0798007               2.1715
        33                          0.1152077               3.1350
        34                          0.1264720               3.4415
        35                          0.1444428               3.9305
        36                          0.1629678               4.4346
        37                          0.1701259               4.6294
       ...                                ...                  ...
        49                          0.6674893              18.1633
      -------------------------------------------------------------
                  HL-Gap            0.1571644 Eh            4.2767 eV

     #   Z          covCN         q      C6AA      α(0)
     1   6 C        2.712     0.249    22.817     7.819
     2   7 N        2.735    -0.093    23.052     7.131
     3   6 C        2.929     0.075    26.315     8.413
     4   6 C        2.922    -0.032    28.798     8.800
     5   6 C        3.697    -0.045    21.545     6.639
     6   6 C        2.922    -0.035    28.862     8.810
     7   6 C        2.921    -0.026    28.652     8.778
     8   6 C        2.920    -0.028    28.707     8.786
     9   6 C        2.921    -0.025    28.638     8.776
    10   1 H        0.926     0.043     2.413     2.429
    11   1 H        0.926     0.044     2.400     2.423
    12   8 O        0.857    -0.414    21.966     6.284
    13   1 H        0.925     0.059     2.211     2.326
    14   1 H        0.924     0.058     2.226     2.333
    15   1 H        0.924     0.051     2.305     2.374
    16   1 H        0.926     0.041     2.435     2.440
    17   1 H        0.926     0.042     2.427     2.436
    18   1 H        0.926     0.040     2.445     2.445
    19   1 H        0.922    -0.004     3.124     2.764

Wiberg/Mayer (AO) data.
largest (>0.10) Wiberg bond orders for each atom

     #   Z sym  total        # sym  WBO       # sym  WBO       # sym  WBO
 ---------------------------------------------------------------------------
     1   6 C    3.956 --    12 O    1.722     2 N    1.259    19 H    0.917
     2   7 N    3.501 --     1 C    1.259     5 C    0.995     3 C    0.974
                            12 O    0.215
     3   6 C    3.965 --     4 C    1.411     6 C    1.409     2 N    0.974
                             8 C    0.109
     4   6 C    3.991 --     9 C    1.440     3 C    1.411    11 H    0.969
                             7 C    0.112
     5   6 C    3.972 --     2 N    0.995    14 H    0.979    13 H    0.978
                            15 H    0.975
     6   6 C    3.991 --     7 C    1.442     3 C    1.409    10 H    0.969
                             9 C    0.113
     7   6 C    3.991 --     6 C    1.442     8 C    1.439    16 H    0.970
                             4 C    0.112
     8   6 C    3.992 --     9 C    1.441     7 C    1.439    18 H    0.971
                             3 C    0.109
     9   6 C    3.991 --     8 C    1.441     4 C    1.440    17 H    0.970
                             6 C    0.113
    10   1 H    0.998 --     6 C    0.969
    11   1 H    0.998 --     4 C    0.969
    12   8 O    2.028 --     1 C    1.722     2 N    0.215
    13   1 H    0.996 --     5 C    0.978
    14   1 H    0.997 --     5 C    0.979
    15   1 H    0.997 --     5 C    0.975
    16   1 H    0.998 --     7 C    0.970
    17   1 H    0.998 --     9 C    0.970
    18   1 H    0.998 --     8 C    0.971
    19   1 H    0.999 --     1 C    0.917
 ---------------------------------------------------------------------------

molecular dipole:
                 x           y           z       tot (Debye)
 q only:       -0.820       0.971       1.062
   full:       -0.709       1.051       1.290       4.598

           -------------------------------------------------
          | TOTAL ENERGY              -28.697515140493 Eh   |
          | GRADIENT NORM               0.000698987274 Eh/α |
          | HOMO-LUMO GAP               4.276661808689 eV   |
           -------------------------------------------------

 * finished run on 2023/11/18 at 08:20:43.159
