   * xtb version 6.5.0 (97a52f5) compiled by 'conda@d2599ee0d4f4' on 2022-05-15
          program call               : /home/liuchw/anaconda3/envs/xtbenv/bin/xtb --gfn 2 --chrg 0 --uhf 0 4_27_Index_0-opt-2-3-249_preQMOPTprefit_xyzformat.xyz --opt --input xtb-opt-2-3-249_constr.txt

   ID    Z sym.   atoms
    1    6 C      1, 3-5
    2    7 N      2
    3    1 H      6, 7, 9-15
    4    8 O      8
constraining angle 5 2 3 4 to  249.0545891°, actual value: -110.9454109°
constraining angle 2 3 4 8 to  359.0181612°, actual value:   -0.9818388°
constraining angle 10 5 2 1 to  175.9823278°, actual value:  175.9823278°
constraining angle 13 1 2 5 to  301.0244046°, actual value:  -58.9755954°

          :  Hamiltonian                  GFN2-xTB          :
 * total energy  :   -20.0939990 Eh     change       -0.5945822E-10 Eh
 * total energy  :   -20.0999137 Eh     change       -0.5914724E-02 Eh
 * total energy  :   -20.1009165 Eh     change       -0.1002762E-02 Eh
 * total energy  :   -20.1011500 Eh     change       -0.2335028E-03 Eh
 * total energy  :   -20.1012628 Eh     change       -0.1128317E-03 Eh
 * total energy  :   -20.1013815 Eh     change       -0.1186643E-03 Eh
 * total energy  :   -20.1014086 Eh     change       -0.2714782E-04 Eh
 * total energy  :   -20.1014202 Eh     change       -0.1156269E-04 Eh
 * total energy  :   -20.1014215 Eh     change       -0.1313530E-05 Eh
   *** GEOMETRY OPTIMIZATION CONVERGED AFTER 9 ITERATIONS ***

 final structure:
================
15
 xtb: 6.5.0 (97a52f5)
C            1.59848688588562       -0.33175140329289       -0.33935034132506
N            0.58486674076605        0.59663370160068        0.10652429609725
C           -0.77581996947550        0.11155843232423        0.16422757289187
C           -1.06717731599242       -1.35416529896466        0.37133181648383
C            0.99917938989391        1.40848976569043        1.22566488133457
H           -1.33494206626099        0.66594350487948        0.92253232861986
H           -1.26401610686155        0.33624635724168       -0.80185000371990
O           -0.29947821338256       -2.26565715320093        0.49266664360610
H            1.21962312434507        0.82143546445073        2.13236299942471
H            0.21999356969714        2.13090834220717        1.46362376194817
H            1.23477305905676       -0.86739741458051       -1.21348631724843
H            1.89109859391618       -1.06185428707907        0.42473358217668
H            2.48123014066161        0.24302246122834       -0.62480920006087
H           -2.16460945725578       -1.53746141097783        0.35016153523099
H            1.90190862500650        1.95081693847311        0.94500042454020

          :  Hamiltonian                  GFN2-xTB          :
         :: total energy             -20.101421519543 Eh    ::
         :: gradient norm              0.000561575271 Eh/a0 ::
         :: HOMO-LUMO gap              2.184062506408 eV    ::
         :: SCC energy               -20.337167413005 Eh    ::
         :: -> dispersion             -0.008639663379 Eh    ::
         :: repulsion energy           0.235716100776 Eh    ::

    * Orbital Energies and Occupations

         #    Occupation            Energy/Eh            Energy/eV
      -------------------------------------------------------------
         1        2.0000           -0.7212641             -19.6266
       ...           ...                  ...                  ...
         6        2.0000           -0.5694503             -15.4955
         7        2.0000           -0.5624909             -15.3062
         8        2.0000           -0.5520099             -15.0210
         9        2.0000           -0.5332449             -14.5103
        10        2.0000           -0.5179947             -14.0954
        11        2.0000           -0.5162965             -14.0491
        12        2.0000           -0.4946367             -13.4597
        13        2.0000           -0.4790676             -13.0361
        14        2.0000           -0.4667704             -12.7015
        15        2.0000           -0.4619122             -12.5693
        16        2.0000           -0.4555391             -12.3958
        17        2.0000           -0.4134985             -11.2519
        18        2.0000           -0.3423149              -9.3149 (HOMO)
        19                         -0.2620521              -7.1308 (LUMO)
        20                          0.0125881               0.3425
        21                          0.0634881               1.7276
        22                          0.0972799               2.6471
        23                          0.1257755               3.4225
        24                          0.1349468               3.6721
        25                          0.1604514               4.3661
        26                          0.1803856               4.9085
        27                          0.1869861               5.0882
        28                          0.2121456               5.7728
        29                          0.2231440               6.0721
       ...                                ...                  ...
        33                          0.6293528              17.1256
      -------------------------------------------------------------
                  HL-Gap            0.0802628 Eh            2.1841 eV

     #   Z          covCN         q      C6AA      α(0)
     1   6 C        3.700    -0.035    21.369     6.611
     2   7 N        2.723    -0.158    24.418     7.339
     3   6 C        3.747    -0.020    20.999     6.536
     4   6 C        2.753     0.207    23.609     7.957
     5   6 C        3.703    -0.035    21.364     6.609
     6   1 H        0.924     0.066     2.125     2.280
     7   1 H        0.922     0.066     2.129     2.282
     8   8 O        0.856    -0.320    20.144     6.017
     9   1 H        0.923     0.019     2.754     2.595
    10   1 H        0.925     0.036     2.499     2.472
    11   1 H        0.925     0.045     2.388     2.417
    12   1 H        0.924     0.037     2.496     2.471
    13   1 H        0.924     0.038     2.480     2.463
    14   1 H        0.921     0.010     2.889     2.658
    15   1 H        0.925     0.045     2.377     2.411

Wiberg/Mayer (AO) data.
largest (>0.10) Wiberg bond orders for each atom

     #   Z sym  total        # sym  WBO       # sym  WBO       # sym  WBO
 ---------------------------------------------------------------------------
     1   6 C    3.982 --     2 N    1.011    11 H    0.983    13 H    0.981
                            12 H    0.974
     2   7 N    3.152 --     3 C    1.018     5 C    1.017     1 C    1.011
     3   6 C    3.992 --     2 N    1.018     4 C    1.000     6 H    0.943
                             7 H    0.926
     4   6 C    3.920 --     8 O    1.916     3 C    1.000    14 H    0.927
     5   6 C    3.986 --     2 N    1.017    10 H    0.982    15 H    0.981
                             9 H    0.974
     6   1 H    0.996 --     3 C    0.943
     7   1 H    0.996 --     3 C    0.926
     8   8 O    2.103 --     4 C    1.916
     9   1 H    1.000 --     5 C    0.974
    10   1 H    0.999 --     5 C    0.982
    11   1 H    0.998 --     1 C    0.983
    12   1 H    0.999 --     1 C    0.974
    13   1 H    0.999 --     1 C    0.981
    14   1 H    0.999 --     4 C    0.927
    15   1 H    0.998 --     5 C    0.981
 ---------------------------------------------------------------------------

molecular dipole:
                 x           y           z       tot (Debye)
 q only:       -0.290       0.896      -0.088
   full:       -0.483       0.873       0.074       2.542

           -------------------------------------------------
          | TOTAL ENERGY              -20.101421519543 Eh   |
          | GRADIENT NORM               0.000561575271 Eh/α |
          | HOMO-LUMO GAP               2.184062506408 eV   |
           -------------------------------------------------

 * finished run on 2023/11/18 at 08:11:47.226
