                               Psi4 1.6 release

  ==> Input File <==

--------------------------------------------------------------------------
molecule {
0 1
 C    1.933028   -0.482498    0.589291
 N    0.712976    0.146572    0.131602
 C   -0.484682   -0.497616    0.635426
 C   -1.517488   -0.714792   -0.442981
 C    0.715021    1.567086    0.401230
 H   -0.247774   -1.491579    1.032586
 H   -0.962401    0.061429    1.457311
 O   -1.426789   -0.398922   -1.591314
 H    0.754333    1.795172    1.479775
 H   -0.185320    2.010758   -0.021007
 H    1.921240   -1.537555    0.319678
 H    2.083703   -0.392841    1.677688
 H    2.776877   -0.014591    0.084439
 H   -2.426700   -1.223656   -0.052724
 H    1.579097    2.019801   -0.081663
}
memory 20GB
set_num_threads(5)
psi4_io.set_default_path("/scratch/liuchw/Psi4-4_27_Index_0-farH_in17")
set freeze_core True
E, wfn = energy('wb97x-d/6-311+G*',return_wfn=True)
oeprop(wfn,"WIBERG_LOWDIN_INDICES")
clean()
--------------------------------------------------------------------------

    Molecular point group: c1

    Geometry (in Angstrom), charge = 0, multiplicity = 1:

       Center              X                  Y                   Z               Mass
    ------------   -----------------  -----------------  -----------------  -----------------
         C            1.930185306868    -0.429372351679     0.629170984281    12.000000000000
         N            0.710133306868     0.199697648321     0.171481984281    14.003074004430
         C           -0.487524693132    -0.444490351679     0.675305984281    12.000000000000
         C           -1.520330693132    -0.661666351679    -0.403101015719    12.000000000000
         C            0.712178306868     1.620211648321     0.441109984281    12.000000000000
         H           -0.250616693132    -1.438453351679     1.072465984281     1.007825032230
         H           -0.965243693132     0.114554648321     1.497190984281     1.007825032230
         O           -1.429631693132    -0.345796351679    -1.551434015719    15.994914619570
         H            0.751490306868     1.848297648321     1.519654984281     1.007825032230
         H           -0.188162693132     2.063883648321     0.018872984281     1.007825032230
         H            1.918397306868    -1.484429351679     0.359557984281     1.007825032230
         H            2.080860306868    -0.339715351679     1.717567984281     1.007825032230
         H            2.774034306868     0.038534648321     0.124318984281     1.007825032230
         H           -2.429542693132    -1.170530351679    -0.012844015719     1.007825032230
         H            1.576254306868     2.072926648321    -0.041783015719     1.007825032230

  Charge       = 0
  Multiplicity = 1
  Basis Set: 6-311+G*
    Blend: 6-311+G*
  Basis Set: (6-311+G* AUX)
    Blend: HEAVY-AUG-CC-PVTZ-JKFIT

    Orbital Energies [Eh]
    ---------------------

    Doubly Occupied:

       1A    -19.249319     2A    -14.430166     3A    -10.374901
       4A    -10.325817     5A    -10.302999     6A    -10.301063
       7A     -1.162278     8A     -1.038309     9A     -0.854011
      10A     -0.813161    11A     -0.728082    12A     -0.656056
      13A     -0.592700    14A     -0.580003    15A     -0.566285
      16A     -0.538483    17A     -0.513152    18A     -0.504207
      19A     -0.483173    20A     -0.462650    21A     -0.457145
      22A     -0.445281    23A     -0.344160    24A     -0.303019

  @DF-RKS Final Energy:  -287.76234513405433

   => Energetics <=

    Nuclear Repulsion Energy =            246.2298640100262332
    One-Electron Energy =                -877.0467024007052714
    Two-Electron Energy =                 370.9211844519870738
    DFT Exchange-Correlation Energy =     -27.8593675235652256
    Empirical Dispersion Energy =          -0.0073236717970576
    VV10 Nonlocal Energy =                  0.0000000000000000
    Total Energy =                       -287.7623451340542715
 Dipole X            :         -4.7333482            4.9291611            0.1958130
 Dipole Y            :         -1.7440817            1.5962084           -0.1478733
 Dipole Z            :         -4.5598832            5.8559216            1.2960383
 Magnitude           :                                                    1.3190620
*** Psi4 exiting successfully. Buy a developer a beer!
