   * xtb version 6.5.0 (97a52f5) compiled by 'conda@d2599ee0d4f4' on 2022-05-15
          program call               : /home/liuchw/anaconda3/envs/xtbenv/bin/xtb --gfn 2 --chrg 0 --uhf 0 4_27_Index_0-opt-2-3-009_preQMOPTprefit_xyzformat.xyz --opt --input xtb-opt-2-3-009_constr.txt

   ID    Z sym.   atoms
    1    6 C      1, 3-5
    2    7 N      2
    3    1 H      6, 7, 9-15
    4    8 O      8
constraining angle 5 2 3 4 to    9.0312477°, actual value:    9.0312477°
constraining angle 2 3 4 8 to  359.0268957°, actual value:   -0.9731043°
constraining angle 10 5 2 1 to  176.0190512°, actual value:  176.0190512°
constraining angle 13 1 2 5 to  301.0137974°, actual value:  -58.9862026°

          :  Hamiltonian                  GFN2-xTB          :
 * total energy  :   -20.0926496 Eh     change       -0.6347278E-10 Eh
 * total energy  :   -20.0984560 Eh     change       -0.5806302E-02 Eh
 * total energy  :   -20.0989895 Eh     change       -0.5335861E-03 Eh
 * total energy  :   -20.0988585 Eh     change        0.1310262E-03 Eh
 * total energy  :   -20.0993612 Eh     change       -0.5027346E-03 Eh
 * total energy  :   -20.0993885 Eh     change       -0.2727820E-04 Eh
 * total energy  :   -20.0994022 Eh     change       -0.1363378E-04 Eh
 * total energy  :   -20.0994059 Eh     change       -0.3726430E-05 Eh
 * total energy  :   -20.0994066 Eh     change       -0.6765541E-06 Eh
 * total energy  :   -20.0994068 Eh     change       -0.2337889E-06 Eh
   *** GEOMETRY OPTIMIZATION CONVERGED AFTER 10 ITERATIONS ***

 final structure:
================
15
 xtb: 6.5.0 (97a52f5)
C            1.91248824591137       -0.31677464469491        1.06050602938625
N            0.90754679259864       -0.02494377326561        0.06160545569763
C           -0.28593725100720       -0.83578163437578        0.24894961767791
C           -1.67102757772968       -0.27886420418888        0.07022091822130
C            0.72155242352943        1.40061847812940       -0.10984153406095
H           -0.22786137176574       -1.69568276364324       -0.43645310786125
H           -0.30713858930820       -1.26202796081398        1.26618030121532
O           -2.03701120666910        0.82495296638752       -0.21393350649150
H            0.36072112554118        1.90212628503033        0.80000623842320
H            0.01523269195892        1.58571559690976       -0.91246814840717
H            2.06496550409328       -1.39412445504817        1.11830325006736
H            1.64901415661595        0.05961329862637        2.06175810503358
H            2.85233065460760        0.13998918158944        0.75321080544823
H           -2.41380829753912       -1.09089705841722        0.23457158163877
H            1.68405469916278        1.83284770777485       -0.38327600598870

          :  Hamiltonian                  GFN2-xTB          :
         :: total energy             -20.099406794794 Eh    ::
         :: gradient norm              0.000647336206 Eh/a0 ::
         :: HOMO-LUMO gap              2.365922012369 eV    ::
         :: SCC energy               -20.334150260721 Eh    ::
         :: -> dispersion             -0.008565322626 Eh    ::
         :: repulsion energy           0.234725738667 Eh    ::

    * Orbital Energies and Occupations

         #    Occupation            Energy/Eh            Energy/eV
      -------------------------------------------------------------
         1        2.0000           -0.7233026             -19.6821
       ...           ...                  ...                  ...
         6        2.0000           -0.5711109             -15.5407
         7        2.0000           -0.5624689             -15.3056
         8        2.0000           -0.5555534             -15.1174
         9        2.0000           -0.5319794             -14.4759
        10        2.0000           -0.5187536             -14.1160
        11        2.0000           -0.5165459             -14.0559
        12        2.0000           -0.4952021             -13.4751
        13        2.0000           -0.4848984             -13.1948
        14        2.0000           -0.4691813             -12.7671
        15        2.0000           -0.4607763             -12.5384
        16        2.0000           -0.4549659             -12.3803
        17        2.0000           -0.4056895             -11.0394
        18        2.0000           -0.3503908              -9.5346 (HOMO)
        19                         -0.2634447              -7.1687 (LUMO)
        20                          0.0063233               0.1721
        21                          0.0619383               1.6854
        22                          0.0906097               2.4656
        23                          0.1266574               3.4465
        24                          0.1502535               4.0886
        25                          0.1595282               4.3410
        26                          0.1708006               4.6477
        27                          0.1881935               5.1210
        28                          0.2062803               5.6132
        29                          0.2190060               5.9595
       ...                                ...                  ...
        33                          0.6355239              17.2935
      -------------------------------------------------------------
                  HL-Gap            0.0869460 Eh            2.3659 eV

     #   Z          covCN         q      C6AA      α(0)
     1   6 C        3.714    -0.036    21.338     6.600
     2   7 N        2.722    -0.163    24.521     7.355
     3   6 C        3.752    -0.018    20.962     6.529
     4   6 C        2.754     0.211    23.532     7.944
     5   6 C        3.703    -0.037    21.395     6.613
     6   1 H        0.923     0.068     2.104     2.269
     7   1 H        0.923     0.059     2.206     2.323
     8   8 O        0.856    -0.318    20.106     6.012
     9   1 H        0.923     0.020     2.733     2.585
    10   1 H        0.925     0.063     2.163     2.300
    11   1 H        0.925     0.037     2.493     2.469
    12   1 H        0.923     0.015     2.809     2.621
    13   1 H        0.925     0.047     2.364     2.404
    14   1 H        0.921     0.013     2.841     2.636
    15   1 H        0.925     0.039     2.467     2.456

Wiberg/Mayer (AO) data.
largest (>0.10) Wiberg bond orders for each atom

     #   Z sym  total        # sym  WBO       # sym  WBO       # sym  WBO
 ---------------------------------------------------------------------------
     1   6 C    3.986 --     2 N    1.016    11 H    0.984    13 H    0.981
                            12 H    0.973
     2   7 N    3.133 --     1 C    1.016     5 C    1.011     3 C    1.009
     3   6 C    3.991 --     4 C    1.011     2 N    1.009     6 H    0.933
                             7 H    0.931
     4   6 C    3.925 --     8 O    1.912     3 C    1.011    14 H    0.927
     5   6 C    3.981 --     2 N    1.011    15 H    0.982    10 H    0.979
                             9 H    0.976
     6   1 H    0.995 --     3 C    0.933
     7   1 H    0.996 --     3 C    0.931
     8   8 O    2.107 --     4 C    1.912
     9   1 H    1.000 --     5 C    0.976
    10   1 H    0.996 --     5 C    0.979
    11   1 H    0.999 --     1 C    0.984
    12   1 H    1.000 --     1 C    0.973
    13   1 H    0.997 --     1 C    0.981
    14   1 H    0.999 --     4 C    0.927
    15   1 H    0.999 --     5 C    0.982
 ---------------------------------------------------------------------------

molecular dipole:
                 x           y           z       tot (Debye)
 q only:        0.565      -0.723       0.253
   full:        0.481      -0.885       0.574       2.947

           -------------------------------------------------
          | TOTAL ENERGY              -20.099406794794 Eh   |
          | GRADIENT NORM               0.000647336206 Eh/α |
          | HOMO-LUMO GAP               2.365922012369 eV   |
           -------------------------------------------------

 * finished run on 2023/11/18 at 08:12:16.581
