                               Psi4 1.6 release

  ==> Input File <==

--------------------------------------------------------------------------
molecule {
0 1
 C    1.598487   -0.331751   -0.339350
 N    0.584867    0.596634    0.106524
 C   -0.775820    0.111558    0.164228
 C   -1.067177   -1.354165    0.371332
 C    0.999179    1.408490    1.225665
 H   -1.334942    0.665944    0.922532
 H   -1.264016    0.336246   -0.801850
 O   -0.299478   -2.265657    0.492667
 H    1.219623    0.821435    2.132363
 H    0.219994    2.130908    1.463624
 H    1.234773   -0.867397   -1.213486
 H    1.891099   -1.061854    0.424734
 H    2.481230    0.243022   -0.624809
 H   -2.164609   -1.537461    0.350162
 H    1.901909    1.950817    0.945000
}
memory 20GB
set_num_threads(5)
psi4_io.set_default_path("/scratch/liuchw/Psi4-4_27_Index_0-farH_in17")
set freeze_core True
E, wfn = energy('wb97x-d/6-311+G*',return_wfn=True)
oeprop(wfn,"WIBERG_LOWDIN_INDICES")
clean()
--------------------------------------------------------------------------

    Molecular point group: c1

    Geometry (in Angstrom), charge = 0, multiplicity = 1:

       Center              X                  Y                   Z               Mass
    ------------   -----------------  -----------------  -----------------  -----------------
         C            1.406986462308    -0.019673968626    -0.684604441691    12.000000000000
         N            0.393366462308     0.908711031374    -0.238730441691    14.003074004430
         C           -0.967320537692     0.423635031374    -0.181026441691    12.000000000000
         C           -1.258677537692    -1.042087968626     0.026077558309    12.000000000000
         C            0.807678462308     1.720567031374     0.880410558309    12.000000000000
         H           -1.526442537692     0.978021031374     0.577277558309     1.007825032230
         H           -1.455516537692     0.648323031374    -1.147104441691     1.007825032230
         O           -0.490978537692    -1.953579968626     0.147412558309    15.994914619570
         H            1.028122462308     1.133512031374     1.787108558309     1.007825032230
         H            0.028493462308     2.442985031374     1.118369558309     1.007825032230
         H            1.043272462308    -0.555319968626    -1.558740441691     1.007825032230
         H            1.699598462308    -0.749776968626     0.079479558309     1.007825032230
         H            2.289729462308     0.555099031374    -0.970063441691     1.007825032230
         H           -2.356109537692    -1.225383968626     0.004907558309     1.007825032230
         H            1.710408462308     2.262894031374     0.599745558309     1.007825032230

  Charge       = 0
  Multiplicity = 1
  Basis Set: 6-311+G*
    Blend: 6-311+G*
  Basis Set: (6-311+G* AUX)
    Blend: HEAVY-AUG-CC-PVTZ-JKFIT

    Orbital Energies [Eh]
    ---------------------

    Doubly Occupied:

       1A    -19.254361     2A    -14.427043     3A    -10.382091
       4A    -10.328330     5A    -10.301984     6A    -10.291247
       7A     -1.167863     8A     -1.032623     9A     -0.857407
      10A     -0.809494    11A     -0.730696    12A     -0.655051
      13A     -0.592431    14A     -0.577312    15A     -0.564534
      16A     -0.538779    17A     -0.512056    18A     -0.507691
      19A     -0.474108    20A     -0.462532    21A     -0.456692
      22A     -0.446856    23A     -0.358418    24A     -0.286010

  @DF-RKS Final Energy:  -287.75842926373133

   => Energetics <=

    Nuclear Repulsion Energy =            248.2907293296429430
    One-Electron Energy =                -881.1781620213295128
    Two-Electron Energy =                 373.0022428123083387
    DFT Exchange-Correlation Energy =     -27.8658599781477285
    Empirical Dispersion Energy =          -0.0073794062052877
    VV10 Nonlocal Energy =                  0.0000000000000000
    Total Energy =                       -287.7584292637313297
 Dipole X            :         -2.7821183            2.3041321           -0.4779862
 Dipole Y            :         -4.3561886            5.1350123            0.7788238
 Dipole Z            :         -0.3827589            0.4616805            0.0789216
 Magnitude           :                                                    0.9172055
*** Psi4 exiting successfully. Buy a developer a beer!
