   * xtb version 6.5.0 (97a52f5) compiled by 'conda@d2599ee0d4f4' on 2022-05-15
          program call               : /home/liuchw/anaconda3/envs/xtbenv/bin/xtb --gfn 2 --chrg 0 --uhf 0 4_27_Index_0-opt-2-3-219_preQMOPTprefit_xyzformat.xyz --opt --input xtb-opt-2-3-219_constr.txt

   ID    Z sym.   atoms
    1    6 C      1, 3-5
    2    7 N      2
    3    1 H      6, 7, 9-15
    4    8 O      8
constraining angle 5 2 3 4 to  218.9487601°, actual value: -141.0512399°
constraining angle 2 3 4 8 to  358.9614477°, actual value:   -1.0385523°
constraining angle 10 5 2 1 to  176.0068658°, actual value:  176.0068658°
constraining angle 13 1 2 5 to  300.9825341°, actual value:  -59.0174659°

          :  Hamiltonian                  GFN2-xTB          :
 * total energy  :   -20.0926112 Eh     change       -0.8130030E-10 Eh
 * total energy  :   -20.0987096 Eh     change       -0.6098386E-02 Eh
 * total energy  :   -20.0994691 Eh     change       -0.7594639E-03 Eh
 * total energy  :   -20.0995233 Eh     change       -0.5426379E-04 Eh
 * total energy  :   -20.0995416 Eh     change       -0.1826498E-04 Eh
 * total energy  :   -20.0995558 Eh     change       -0.1424128E-04 Eh
 * total energy  :   -20.0995585 Eh     change       -0.2680906E-05 Eh
 * total energy  :   -20.0995612 Eh     change       -0.2645933E-05 Eh
   *** GEOMETRY OPTIMIZATION CONVERGED AFTER 8 ITERATIONS ***

 final structure:
================
15
 xtb: 6.5.0 (97a52f5)
C            1.64353800179096       -0.40947268165880       -0.14076962891137
N            0.59188822373630        0.57346835614079        0.03399177963283
C           -0.74571993718293        0.05473659417232        0.28898476823356
C           -1.10142370371453       -1.38983108507971        0.07281633826007
C            0.96520934281272        1.54287120579207        1.04364660480715
H           -1.03757440770674        0.23784995784338        1.33794020879809
H           -1.45667527092601        0.62709729640588       -0.32554049933742
O           -0.44147375345090       -2.30579321380202       -0.32496880193506
H            1.10461678175046        1.09232125586312        2.03940640923228
H            0.19687052168465        2.31267496037791        1.11167322956572
H            1.37648291695543       -1.09593569808918       -0.93773758970878
H            1.85172068783552       -0.98634630539130        0.77165011945239
H            2.54991743587371        0.11985635969167       -0.43421008188445
H           -2.17150547864587       -1.54319788595781        0.33651726213473
H            1.89924664918721        2.01646988369172        0.74593488166030

          :  Hamiltonian                  GFN2-xTB          :
         :: total energy             -20.099561161929 Eh    ::
         :: gradient norm              0.000782090953 Eh/a0 ::
         :: HOMO-LUMO gap              2.436357269673 eV    ::
         :: SCC energy               -20.333895340503 Eh    ::
         :: -> dispersion             -0.008577172368 Eh    ::
         :: repulsion energy           0.234314412940 Eh    ::

    * Orbital Energies and Occupations

         #    Occupation            Energy/Eh            Energy/eV
      -------------------------------------------------------------
         1        2.0000           -0.7238727             -19.6976
       ...           ...                  ...                  ...
         6        2.0000           -0.5716033             -15.5541
         7        2.0000           -0.5629067             -15.3175
         8        2.0000           -0.5559977             -15.1295
         9        2.0000           -0.5322154             -14.4823
        10        2.0000           -0.5193638             -14.1326
        11        2.0000           -0.5165944             -14.0572
        12        2.0000           -0.4955327             -13.4841
        13        2.0000           -0.4852431             -13.2041
        14        2.0000           -0.4693575             -12.7719
        15        2.0000           -0.4605406             -12.5319
        16        2.0000           -0.4544923             -12.3674
        17        2.0000           -0.4053845             -11.0311
        18        2.0000           -0.3535853              -9.6215 (HOMO)
        19                         -0.2640508              -7.1852 (LUMO)
        20                          0.0067253               0.1830
        21                          0.0622526               1.6940
        22                          0.0879717               2.3938
        23                          0.1253205               3.4101
        24                          0.1509444               4.1074
        25                          0.1602016               4.3593
        26                          0.1689966               4.5986
        27                          0.1879546               5.1145
        28                          0.2045021               5.5648
        29                          0.2169304               5.9030
       ...                                ...                  ...
        33                          0.6356610              17.2972
      -------------------------------------------------------------
                  HL-Gap            0.0895345 Eh            2.4364 eV

     #   Z          covCN         q      C6AA      α(0)
     1   6 C        3.707    -0.038    21.400     6.612
     2   7 N        2.722    -0.164    24.546     7.358
     3   6 C        3.755    -0.018    20.951     6.527
     4   6 C        2.754     0.212    23.520     7.941
     5   6 C        3.720    -0.035    21.319     6.595
     6   1 H        0.923     0.057     2.233     2.337
     7   1 H        0.923     0.070     2.087     2.259
     8   8 O        0.856    -0.317    20.090     6.009
     9   1 H        0.923     0.014     2.824     2.628
    10   1 H        0.925     0.037     2.492     2.469
    11   1 H        0.925     0.065     2.141     2.288
    12   1 H        0.923     0.018     2.759     2.598
    13   1 H        0.925     0.039     2.466     2.456
    14   1 H        0.921     0.014     2.833     2.632
    15   1 H        0.925     0.047     2.358     2.401

Wiberg/Mayer (AO) data.
largest (>0.10) Wiberg bond orders for each atom

     #   Z sym  total        # sym  WBO       # sym  WBO       # sym  WBO
 ---------------------------------------------------------------------------
     1   6 C    3.980 --     2 N    1.010    13 H    0.982    11 H    0.979
                            12 H    0.976
     2   7 N    3.127 --     5 C    1.015     1 C    1.010     3 C    1.008
     3   6 C    3.991 --     4 C    1.011     2 N    1.008     7 H    0.932
                             6 H    0.932
     4   6 C    3.924 --     8 O    1.914     3 C    1.011    14 H    0.927
     5   6 C    3.986 --     2 N    1.015    10 H    0.984    15 H    0.981
                             9 H    0.973
     6   1 H    0.997 --     3 C    0.932
     7   1 H    0.995 --     3 C    0.932
     8   8 O    2.109 --     4 C    1.914
     9   1 H    1.000 --     5 C    0.973
    10   1 H    0.999 --     5 C    0.984
    11   1 H    0.996 --     1 C    0.979
    12   1 H    1.000 --     1 C    0.976
    13   1 H    0.999 --     1 C    0.982
    14   1 H    0.999 --     4 C    0.927
    15   1 H    0.997 --     5 C    0.981
 ---------------------------------------------------------------------------

molecular dipole:
                 x           y           z       tot (Debye)
 q only:       -0.245       0.851       0.332
   full:       -0.410       0.866       0.689       2.998

           -------------------------------------------------
          | TOTAL ENERGY              -20.099561161929 Eh   |
          | GRADIENT NORM               0.000782090953 Eh/α |
          | HOMO-LUMO GAP               2.436357269673 eV   |
           -------------------------------------------------

 * finished run on 2023/11/18 at 08:11:33.608
