                               Psi4 1.6 release

  ==> Input File <==

--------------------------------------------------------------------------
molecule {
0 1
 C    1.656394   -0.474751    0.054338
 N    0.587634    0.508278    0.031143
 C   -0.697623   -0.028323    0.431367
 C   -1.160295   -1.320433   -0.179086
 C    0.931150    1.631008    0.880726
 H   -0.746715   -0.202020    1.528549
 H   -1.467708    0.718745    0.203178
 O   -0.619825   -2.007868   -0.996104
 H    1.040700    1.344478    1.939045
 H    0.158909    2.396440    0.804521
 H    1.418319   -1.289392   -0.622419
 H    1.832000   -0.882318    1.062199
 H    2.570122    0.004105   -0.293294
 H   -2.149344   -1.608962    0.237984
 H    1.871398    2.057784    0.537187
}
memory 20GB
set_num_threads(5)
psi4_io.set_default_path("/scratch/liuchw/Psi4-4_27_Index_0-farH_in17")
set freeze_core True
E, wfn = energy('wb97x-d/6-311+G*',return_wfn=True)
oeprop(wfn,"WIBERG_LOWDIN_INDICES")
clean()
--------------------------------------------------------------------------

    Molecular point group: c1

    Geometry (in Angstrom), charge = 0, multiplicity = 1:

       Center              X                  Y                   Z               Mass
    ------------   -----------------  -----------------  -----------------  -----------------
         C            1.522783472804    -0.190497698434     0.006205497973    12.000000000000
         N            0.454023472804     0.792531301566    -0.016989502027    14.003074004430
         C           -0.831233527196     0.255930301566     0.383234497973    12.000000000000
         C           -1.293905527196    -1.036179698434    -0.227218502027    12.000000000000
         C            0.797539472804     1.915261301566     0.832593497973    12.000000000000
         H           -0.880325527196     0.082233301566     1.480416497973     1.007825032230
         H           -1.601318527196     1.002998301566     0.155045497973     1.007825032230
         O           -0.753435527196    -1.723614698434    -1.044236502027    15.994914619570
         H            0.907089472804     1.628731301566     1.890912497973     1.007825032230
         H            0.025298472804     2.680693301566     0.756388497973     1.007825032230
         H            1.284708472804    -1.005138698434    -0.670551502027     1.007825032230
         H            1.698389472804    -0.598064698434     1.014066497973     1.007825032230
         H            2.436511472804     0.288358301566    -0.341426502027     1.007825032230
         H           -2.282954527196    -1.324708698434     0.189851497973     1.007825032230
         H            1.737787472804     2.342037301566     0.489054497973     1.007825032230

  Charge       = 0
  Multiplicity = 1
  Basis Set: 6-311+G*
    Blend: 6-311+G*
  Basis Set: (6-311+G* AUX)
    Blend: HEAVY-AUG-CC-PVTZ-JKFIT

    Orbital Energies [Eh]
    ---------------------

    Doubly Occupied:

       1A    -19.257506     2A    -14.435280     3A    -10.386096
       4A    -10.330007     5A    -10.304250     6A    -10.290957
       7A     -1.171435     8A     -1.040494     9A     -0.858906
      10A     -0.809221    11A     -0.733150    12A     -0.658439
      13A     -0.595859    14A     -0.583334    15A     -0.565113
      16A     -0.539936    17A     -0.520413    18A     -0.500508
      19A     -0.479395    20A     -0.466602    21A     -0.457313
      22A     -0.447730    23A     -0.348261    24A     -0.309628

  @DF-RKS Final Energy:  -287.76361150920280

   => Energetics <=

    Nuclear Repulsion Energy =            247.7377342027791371
    One-Electron Energy =                -879.9372022705164227
    Two-Electron Energy =                 372.3044391456180051
    DFT Exchange-Correlation Energy =     -27.8612654955159158
    Empirical Dispersion Energy =          -0.0073170915676405
    VV10 Nonlocal Energy =                  0.0000000000000000
    Total Energy =                       -287.7636115092028035
 Dipole X            :         -3.3843939            3.1123217           -0.2720723
 Dipole Y            :         -4.1336435            4.7678290            0.6341855
 Dipole Z            :         -3.6982528            4.6484029            0.9501501
 Magnitude           :                                                    1.1743083
*** Psi4 exiting successfully. Buy a developer a beer!
