   * xtb version 6.5.0 (97a52f5) compiled by 'conda@d2599ee0d4f4' on 2022-05-15
          program call               : /home/liuchw/anaconda3/envs/xtbenv/bin/xtb --gfn 2 --chrg 0 --uhf 0 4_27_Index_0-opt-2-3-189_preQMOPTprefit_xyzformat.xyz --opt --input xtb-opt-2-3-189_constr.txt

   ID    Z sym.   atoms
    1    6 C      1, 3-5
    2    7 N      2
    3    1 H      6, 7, 9-15
    4    8 O      8
constraining angle 5 2 3 4 to  188.9474669°, actual value: -171.0525331°
constraining angle 2 3 4 8 to  359.0065733°, actual value:   -0.9934267°
constraining angle 10 5 2 1 to  176.0148491°, actual value:  176.0148491°
constraining angle 13 1 2 5 to  301.0005389°, actual value:  -58.9994611°

          :  Hamiltonian                  GFN2-xTB          :
 * total energy  :   -20.0978081 Eh     change       -0.7522871E-10 Eh
 * total energy  :   -20.1036134 Eh     change       -0.5805323E-02 Eh
 * total energy  :   -20.1041883 Eh     change       -0.5748991E-03 Eh
 * total energy  :   -20.1042291 Eh     change       -0.4079219E-04 Eh
 * total energy  :   -20.1042329 Eh     change       -0.3768743E-05 Eh
 * total energy  :   -20.1042358 Eh     change       -0.2888864E-05 Eh
 * total energy  :   -20.1042361 Eh     change       -0.3451486E-06 Eh
 * total energy  :   -20.1042367 Eh     change       -0.5338992E-06 Eh
   *** GEOMETRY OPTIMIZATION CONVERGED AFTER 8 ITERATIONS ***

 final structure:
================
15
 xtb: 6.5.0 (97a52f5)
C            1.65639421905515       -0.47475124547260        0.05433799510834
N            0.58763435378139        0.50827785388483        0.03114332928743
C           -0.69762321432229       -0.02832312261643        0.43136732522991
C           -1.16029533246983       -1.32043287022805       -0.17908645837111
C            0.93115037727454        1.63100833037717        0.88072648419512
H           -0.74671471999135       -0.20202012289651        1.52854935005622
H           -1.46770807923085        0.71874516883537        0.20317847779223
O           -0.61982506404915       -2.00786776057268       -0.99610418794776
H            1.04070032680264        1.34447753375563        1.93904460825147
H            0.15890891452311        2.39643999039826        0.80452097361817
H            1.41831877206399       -1.28939216490952       -0.62241858334153
H            1.83200037861511       -0.88231822456337        1.06219900189306
H            2.57012233077092        0.00410531615150       -0.29329356920003
H           -2.14934351185820       -1.60896246613689        0.23798406430441
H            1.87139822903482        2.05778378399327        0.53718718912406

          :  Hamiltonian                  GFN2-xTB          :
         :: total energy             -20.104236667949 Eh    ::
         :: gradient norm              0.000389348099 Eh/a0 ::
         :: HOMO-LUMO gap              2.562484351357 eV    ::
         :: SCC energy               -20.338801048383 Eh    ::
         :: -> dispersion             -0.008587740645 Eh    ::
         :: repulsion energy           0.234541712613 Eh    ::

    * Orbital Energies and Occupations

         #    Occupation            Energy/Eh            Energy/eV
      -------------------------------------------------------------
         1        2.0000           -0.7242245             -19.7072
       ...           ...                  ...                  ...
         6        2.0000           -0.5716146             -15.5544
         7        2.0000           -0.5657434             -15.3947
         8        2.0000           -0.5555970             -15.1186
         9        2.0000           -0.5340425             -14.5320
        10        2.0000           -0.5231357             -14.2352
        11        2.0000           -0.5172774             -14.0758
        12        2.0000           -0.4925155             -13.4020
        13        2.0000           -0.4843483             -13.1798
        14        2.0000           -0.4741980             -12.9036
        15        2.0000           -0.4616683             -12.5626
        16        2.0000           -0.4545565             -12.3691
        17        2.0000           -0.4051918             -11.0258
        18        2.0000           -0.3599921              -9.7959 (HOMO)
        19                         -0.2658225              -7.2334 (LUMO)
        20                          0.0167800               0.4566
        21                          0.0702357               1.9112
        22                          0.0920924               2.5060
        23                          0.1191096               3.2411
        24                          0.1433626               3.9011
        25                          0.1599603               4.3527
        26                          0.1793741               4.8810
        27                          0.1832054               4.9853
        28                          0.1999828               5.4418
        29                          0.2103786               5.7247
       ...                                ...                  ...
        33                          0.6310080              17.1706
      -------------------------------------------------------------
                  HL-Gap            0.0941696 Eh            2.5625 eV

     #   Z          covCN         q      C6AA      α(0)
     1   6 C        3.715    -0.041    21.443     6.616
     2   7 N        2.723    -0.160    24.452     7.344
     3   6 C        3.766    -0.012    20.828     6.505
     4   6 C        2.754     0.213    23.490     7.937
     5   6 C        3.727    -0.035    21.306     6.590
     6   1 H        0.921     0.043     2.414     2.430
     7   1 H        0.924     0.070     2.090     2.261
     8   8 O        0.856    -0.311    19.991     5.995
     9   1 H        0.923     0.013     2.839     2.635
    10   1 H        0.925     0.037     2.488     2.467
    11   1 H        0.925     0.069     2.098     2.265
    12   1 H        0.923     0.009     2.899     2.663
    13   1 H        0.925     0.042     2.426     2.436
    14   1 H        0.921     0.016     2.788     2.611
    15   1 H        0.925     0.048     2.350     2.397

Wiberg/Mayer (AO) data.
largest (>0.10) Wiberg bond orders for each atom

     #   Z sym  total        # sym  WBO       # sym  WBO       # sym  WBO
 ---------------------------------------------------------------------------
     1   6 C    3.980 --     2 N    1.010    13 H    0.983    12 H    0.975
                            11 H    0.975
     2   7 N    3.128 --     3 C    1.015     5 C    1.014     1 C    1.010
     3   6 C    3.993 --     2 N    1.015     4 C    1.011     7 H    0.936
                             6 H    0.926
     4   6 C    3.923 --     8 O    1.920     3 C    1.011    14 H    0.928
     5   6 C    3.986 --     2 N    1.014    10 H    0.983    15 H    0.982
                             9 H    0.972
     6   1 H    0.998 --     3 C    0.926
     7   1 H    0.995 --     3 C    0.936
     8   8 O    2.112 --     4 C    1.920
     9   1 H    1.000 --     5 C    0.972
    10   1 H    0.999 --     5 C    0.983
    11   1 H    0.995 --     1 C    0.975
    12   1 H    1.000 --     1 C    0.975
    13   1 H    0.998 --     1 C    0.983
    14   1 H    0.999 --     4 C    0.928
    15   1 H    0.997 --     5 C    0.982
 ---------------------------------------------------------------------------

molecular dipole:
                 x           y           z       tot (Debye)
 q only:       -0.150       0.657       0.658
   full:       -0.281       0.676       1.129       3.420

           -------------------------------------------------
          | TOTAL ENERGY              -20.104236667949 Eh   |
          | GRADIENT NORM               0.000389348099 Eh/α |
          | HOMO-LUMO GAP               2.562484351357 eV   |
           -------------------------------------------------

 * finished run on 2023/11/18 at 08:11:20.082
