   * xtb version 6.5.0 (97a52f5) compiled by 'conda@d2599ee0d4f4' on 2022-05-15
          program call               : /home/liuchw/anaconda3/envs/xtbenv/bin/xtb --gfn 2 --chrg 0 --uhf 0 4_27_Index_0-opt-2-3-129_preQMOPTprefit_xyzformat.xyz --opt --input xtb-opt-2-3-129_constr.txt

   ID    Z sym.   atoms
    1    6 C      1, 3-5
    2    7 N      2
    3    1 H      6, 7, 9-15
    4    8 O      8
constraining angle 5 2 3 4 to  128.9774769°, actual value:  128.9774769°
constraining angle 2 3 4 8 to  359.0043737°, actual value:   -0.9956263°
constraining angle 10 5 2 1 to  175.9987107°, actual value:  175.9987107°
constraining angle 13 1 2 5 to  300.9961925°, actual value:  -59.0038075°

          :  Hamiltonian                  GFN2-xTB          :
 * total energy  :   -20.0968016 Eh     change       -0.5428547E-10 Eh
 * total energy  :   -20.1016725 Eh     change       -0.4870861E-02 Eh
 * total energy  :   -20.1024527 Eh     change       -0.7802262E-03 Eh
 * total energy  :   -20.1026367 Eh     change       -0.1840534E-03 Eh
 * total energy  :   -20.1027266 Eh     change       -0.8983353E-04 Eh
 * total energy  :   -20.1027520 Eh     change       -0.2544513E-04 Eh
 * total energy  :   -20.1027618 Eh     change       -0.9778650E-05 Eh
 * total energy  :   -20.1027636 Eh     change       -0.1843055E-05 Eh
 * total energy  :   -20.1027639 Eh     change       -0.2514854E-06 Eh
   *** GEOMETRY OPTIMIZATION CONVERGED AFTER 9 ITERATIONS ***

 final structure:
================
15
 xtb: 6.5.0 (97a52f5)
C            1.80858713653315       -0.52213950028208        0.40669537215859
N            0.63863865860829        0.29014884801376        0.17530867009456
C           -0.58054365397793       -0.32732885278003        0.65319472732725
C           -1.36469908103554       -0.98537069546104       -0.45654820047657
C            0.80953206249106        1.66214557108175        0.59078887082342
H           -0.40041366356109       -1.08394334783703        1.43451047631742
H           -1.24761705739258        0.42154278262023        1.09659032994835
O           -1.07398280285684       -1.01089057827508       -1.61484886165149
H            0.98942991290180        1.76728071839509        1.67434304871182
H           -0.07716291219439        2.23509691949596        0.32563009885011
H            1.62846746868050       -1.52300743377049        0.01798367843382
H            2.07646752085477       -0.59524530528587        1.47430223077850
H            2.64978024261438       -0.09543429139307       -0.13728479232881
H           -2.29334443642770       -1.47006238530784       -0.08184258504418
H            1.66197959476210        2.08397755078576        0.06051393605716

          :  Hamiltonian                  GFN2-xTB          :
         :: total energy             -20.102763885090 Eh    ::
         :: gradient norm              0.000855322132 Eh/a0 ::
         :: HOMO-LUMO gap              2.421599270680 eV    ::
         :: SCC energy               -20.338885396619 Eh    ::
         :: -> dispersion             -0.008505025733 Eh    ::
         :: repulsion energy           0.236097882729 Eh    ::

    * Orbital Energies and Occupations

         #    Occupation            Energy/Eh            Energy/eV
      -------------------------------------------------------------
         1        2.0000           -0.7178102             -19.5326
       ...           ...                  ...                  ...
         6        2.0000           -0.5682969             -15.4641
         7        2.0000           -0.5643866             -15.3577
         8        2.0000           -0.5501792             -14.9711
         9        2.0000           -0.5351467             -14.5621
        10        2.0000           -0.5198779             -14.1466
        11        2.0000           -0.5163178             -14.0497
        12        2.0000           -0.4983881             -13.5618
        13        2.0000           -0.4840513             -13.1717
        14        2.0000           -0.4680714             -12.7369
        15        2.0000           -0.4638532             -12.6221
        16        2.0000           -0.4595335             -12.5045
        17        2.0000           -0.4067053             -11.0670
        18        2.0000           -0.3494693              -9.5095 (HOMO)
        19                         -0.2604772              -7.0879 (LUMO)
        20                          0.0171642               0.4671
        21                          0.0873281               2.3763
        22                          0.0978887               2.6637
        23                          0.1138056               3.0968
        24                          0.1192023               3.2437
        25                          0.1588564               4.3227
        26                          0.1658800               4.5138
        27                          0.1958099               5.3283
        28                          0.2075653               5.6481
        29                          0.2157481               5.8708
       ...                                ...                  ...
        33                          0.6338782              17.2487
      -------------------------------------------------------------
                  HL-Gap            0.0889921 Eh            2.4216 eV

     #   Z          covCN         q      C6AA      α(0)
     1   6 C        3.709    -0.034    21.318     6.599
     2   7 N        2.725    -0.152    24.281     7.318
     3   6 C        3.757    -0.016    20.916     6.521
     4   6 C        2.755     0.209    23.572     7.950
     5   6 C        3.706    -0.035    21.351     6.605
     6   1 H        0.923     0.048     2.344     2.395
     7   1 H        0.924     0.062     2.178     2.308
     8   8 O        0.856    -0.298    19.753     5.959
     9   1 H        0.923     0.012     2.861     2.645
    10   1 H        0.925     0.041     2.436     2.441
    11   1 H        0.925     0.045     2.389     2.417
    12   1 H        0.923     0.011     2.878     2.653
    13   1 H        0.925     0.047     2.357     2.401
    14   1 H        0.921     0.014     2.834     2.633
    15   1 H        0.925     0.048     2.346     2.395

Wiberg/Mayer (AO) data.
largest (>0.10) Wiberg bond orders for each atom

     #   Z sym  total        # sym  WBO       # sym  WBO       # sym  WBO
 ---------------------------------------------------------------------------
     1   6 C    3.985 --     2 N    1.017    11 H    0.984    13 H    0.982
                            12 H    0.973
     2   7 N    3.139 --     1 C    1.017     5 C    1.017     3 C    1.014
     3   6 C    3.993 --     2 N    1.014     4 C    0.996     7 H    0.940
                             6 H    0.939
     4   6 C    3.920 --     8 O    1.944     3 C    0.996    14 H    0.927
     5   6 C    3.986 --     2 N    1.017    10 H    0.983    15 H    0.981
                             9 H    0.974
     6   1 H    0.998 --     3 C    0.939
     7   1 H    0.996 --     3 C    0.940
     8   8 O    2.115 --     4 C    1.944
     9   1 H    1.000 --     5 C    0.974
    10   1 H    0.998 --     5 C    0.983
    11   1 H    0.998 --     1 C    0.984
    12   1 H    1.000 --     1 C    0.973
    13   1 H    0.998 --     1 C    0.982
    14   1 H    1.000 --     4 C    0.927
    15   1 H    0.997 --     5 C    0.981
 ---------------------------------------------------------------------------

molecular dipole:
                 x           y           z       tot (Debye)
 q only:        0.073       0.196       0.939
   full:       -0.000       0.170       1.454       3.720

           -------------------------------------------------
          | TOTAL ENERGY              -20.102763885090 Eh   |
          | GRADIENT NORM               0.000855322132 Eh/α |
          | HOMO-LUMO GAP               2.421599270680 eV   |
           -------------------------------------------------

 * finished run on 2023/11/18 at 08:10:56.780
