                               Psi4 1.6 release

  ==> Input File <==

--------------------------------------------------------------------------
molecule {
0 1
 C    1.514102   -0.081278    1.368489
 N    0.964370   -0.076502    0.028968
 C   -0.274041   -0.802983   -0.117316
 C   -1.417482   -0.490308    0.821275
 C    0.954515    1.234649   -0.581321
 H   -0.636996   -0.688516   -1.143439
 H   -0.064005   -1.873364    0.025703
 O   -1.426013    0.304064    1.718175
 H    0.321313    1.957291   -0.046178
 H    0.596721    1.151415   -1.606891
 H    1.537801   -1.106151    1.737088
 H    0.948871    0.536504    2.075782
 H    2.536009    0.294796    1.319092
 H   -2.304435   -1.129944    0.617998
 H    1.974390    1.617091   -0.598082
}
memory 20GB
set_num_threads(5)
psi4_io.set_default_path("/scratch/liuchw/Psi4-4_27_Index_0-farH_in17")
set freeze_core True
E, wfn = energy('wb97x-d/6-311+G*',return_wfn=True)
oeprop(wfn,"WIBERG_LOWDIN_INDICES")
clean()
--------------------------------------------------------------------------

    Molecular point group: c1

    Geometry (in Angstrom), charge = 0, multiplicity = 1:

       Center              X                  Y                   Z               Mass
    ------------   -----------------  -----------------  -----------------  -----------------
         C            1.457038785097    -0.114335185449     0.815120329534    12.000000000000
         N            0.907306785097    -0.109559185449    -0.524400670466    14.003074004430
         C           -0.331104214903    -0.836040185449    -0.670684670466    12.000000000000
         C           -1.474545214903    -0.523365185449     0.267906329534    12.000000000000
         C            0.897451785097     1.201591814551    -1.134689670466    12.000000000000
         H           -0.694059214903    -0.721573185449    -1.696807670466     1.007825032230
         H           -0.121068214903    -1.906421185449    -0.527665670466     1.007825032230
         O           -1.483076214903     0.271006814551     1.164806329534    15.994914619570
         H            0.264249785097     1.924233814551    -0.599546670466     1.007825032230
         H            0.539657785097     1.118357814551    -2.160259670466     1.007825032230
         H            1.480737785097    -1.139208185449     1.183719329534     1.007825032230
         H            0.891807785097     0.503446814551     1.522413329534     1.007825032230
         H            2.478945785097     0.261738814551     0.765723329534     1.007825032230
         H           -2.361498214903    -1.163001185449     0.064629329534     1.007825032230
         H            1.917326785097     1.584033814551    -1.151450670466     1.007825032230

  Charge       = 0
  Multiplicity = 1
  Basis Set: 6-311+G*
    Blend: 6-311+G*
  Basis Set: (6-311+G* AUX)
    Blend: HEAVY-AUG-CC-PVTZ-JKFIT

    Orbital Energies [Eh]
    ---------------------

    Doubly Occupied:

       1A    -19.256237     2A    -14.428300     3A    -10.380748
       4A    -10.326411     5A    -10.298648     6A    -10.292740
       7A     -1.168902     8A     -1.033987     9A     -0.853589
      10A     -0.809441    11A     -0.729530    12A     -0.655464
      13A     -0.594697    14A     -0.578423    15A     -0.566037
      16A     -0.539629    17A     -0.510286    18A     -0.507122
      19A     -0.470773    20A     -0.457934    21A     -0.454213
      22A     -0.449507    23A     -0.366283    24A     -0.288514

  @DF-RKS Final Energy:  -287.76540109512769

   => Energetics <=

    Nuclear Repulsion Energy =            250.1908058686506138
    One-Electron Energy =                -884.9882597971466112
    Two-Electron Energy =                 374.9052610245137203
    DFT Exchange-Correlation Energy =     -27.8655556519813814
    Empirical Dispersion Energy =          -0.0076525391640381
    VV10 Nonlocal Energy =                  0.0000000000000000
    Total Energy =                       -287.7654010951276859
 Dipole X            :         -4.0719805            4.1114482            0.0394677
 Dipole Y            :         -0.8779511            0.4343632           -0.4435879
 Dipole Z            :          1.7794281           -2.4295929           -0.6501648
 Magnitude           :                                                    0.7880623
*** Psi4 exiting successfully. Buy a developer a beer!
