   * xtb version 6.5.0 (97a52f5) compiled by 'conda@d2599ee0d4f4' on 2022-05-15
          program call               : /home/liuchw/anaconda3/envs/xtbenv/bin/xtb --gfn 2 --chrg 0 --uhf 0 4_27_Index_0-opt-2-3-339_preQMOPTprefit_xyzformat.xyz --opt --input xtb-opt-2-3-339_constr.txt

   ID    Z sym.   atoms
    1    6 C      1, 3-5
    2    7 N      2
    3    1 H      6, 7, 9-15
    4    8 O      8
constraining angle 5 2 3 4 to  338.9304672°, actual value:  -21.0695328°
constraining angle 2 3 4 8 to  358.9686981°, actual value:   -1.0313019°
constraining angle 10 5 2 1 to  175.9907961°, actual value:  175.9907961°
constraining angle 13 1 2 5 to  301.0189391°, actual value:  -58.9810609°

          :  Hamiltonian                  GFN2-xTB          :
 * total energy  :   -20.0942793 Eh     change       -0.7467094E-10 Eh
 * total energy  :   -20.1002241 Eh     change       -0.5944783E-02 Eh
 * total energy  :   -20.1008564 Eh     change       -0.6323322E-03 Eh
 * total energy  :   -20.1007228 Eh     change        0.1336743E-03 Eh
 * total energy  :   -20.1012537 Eh     change       -0.5309197E-03 Eh
 * total energy  :   -20.1012748 Eh     change       -0.2108134E-04 Eh
 * total energy  :   -20.1012873 Eh     change       -0.1252207E-04 Eh
 * total energy  :   -20.1012907 Eh     change       -0.3421895E-05 Eh
   *** GEOMETRY OPTIMIZATION CONVERGED AFTER 8 ITERATIONS ***

 final structure:
================
15
 xtb: 6.5.0 (97a52f5)
C            1.81187973830531       -0.23731459883867        1.19885293288339
N            0.95383330132509       -0.08307537247927        0.04080521074801
C           -0.25819197969018       -0.88134081424037        0.11507915282925
C           -1.61141280730495       -0.25942797921672        0.34954379459194
C            0.76843505649082        1.32098853738704       -0.27268907538215
H           -0.37696084855646       -1.39600478196212       -0.85510710406752
H           -0.13487815050953       -1.67221656040728        0.86020069266800
O           -1.90516937925698        0.88916692431957        0.51920654740405
H            0.28759956538561        1.89234347305894        0.52690883206255
H            0.18049826981951        1.41035579821329       -1.18472380319976
H            1.98788471781590       -1.29617449266185        1.38581177968808
H            1.39843066255435        0.22108571332462        2.11025128017857
H            2.77147522900168        0.23094070782736        0.98235091469161
H           -2.40080623447182       -1.04328874256798        0.30822715977575
H            1.75250484909158        1.75072619824356       -0.46537731487156

          :  Hamiltonian                  GFN2-xTB          :
         :: total energy             -20.101290711919 Eh    ::
         :: gradient norm              0.000768307323 Eh/a0 ::
         :: HOMO-LUMO gap              2.317181721369 eV    ::
         :: SCC energy               -20.335981816534 Eh    ::
         :: -> dispersion             -0.008666125272 Eh    ::
         :: repulsion energy           0.234662694306 Eh    ::

    * Orbital Energies and Occupations

         #    Occupation            Energy/Eh            Energy/eV
      -------------------------------------------------------------
         1        2.0000           -0.7225616             -19.6619
       ...           ...                  ...                  ...
         6        2.0000           -0.5708399             -15.5333
         7        2.0000           -0.5628499             -15.3159
         8        2.0000           -0.5529904             -15.0476
         9        2.0000           -0.5333628             -14.5135
        10        2.0000           -0.5181537             -14.0997
        11        2.0000           -0.5166555             -14.0589
        12        2.0000           -0.4954018             -13.4806
        13        2.0000           -0.4807316             -13.0814
        14        2.0000           -0.4656673             -12.6715
        15        2.0000           -0.4604475             -12.5294
        16        2.0000           -0.4536149             -12.3435
        17        2.0000           -0.4148985             -11.2900
        18        2.0000           -0.3481172              -9.4727 (HOMO)
        19                         -0.2629623              -7.1556 (LUMO)
        20                          0.0133440               0.3631
        21                          0.0604903               1.6460
        22                          0.0880200               2.3951
        23                          0.1240704               3.3761
        24                          0.1356523               3.6913
        25                          0.1591723               4.3313
        26                          0.1794111               4.8820
        27                          0.1881117               5.1188
        28                          0.2156158               5.8672
        29                          0.2231105               6.0711
       ...                                ...                  ...
        33                          0.6308302              17.1658
      -------------------------------------------------------------
                  HL-Gap            0.0851549 Eh            2.3172 eV

     #   Z          covCN         q      C6AA      α(0)
     1   6 C        3.712    -0.035    21.335     6.600
     2   7 N        2.722    -0.163    24.525     7.355
     3   6 C        3.750    -0.021    21.004     6.536
     4   6 C        2.753     0.208    23.584     7.952
     5   6 C        3.708    -0.036    21.358     6.605
     6   1 H        0.923     0.068     2.109     2.271
     7   1 H        0.924     0.067     2.120     2.277
     8   8 O        0.856    -0.320    20.145     6.018
     9   1 H        0.924     0.039     2.457     2.451
    10   1 H        0.925     0.043     2.409     2.427
    11   1 H        0.925     0.035     2.511     2.478
    12   1 H        0.923     0.019     2.744     2.591
    13   1 H        0.925     0.046     2.374     2.409
    14   1 H        0.921     0.010     2.883     2.655
    15   1 H        0.924     0.038     2.474     2.460

Wiberg/Mayer (AO) data.
largest (>0.10) Wiberg bond orders for each atom

     #   Z sym  total        # sym  WBO       # sym  WBO       # sym  WBO
 ---------------------------------------------------------------------------
     1   6 C    3.986 --     2 N    1.015    11 H    0.982    13 H    0.981
                            12 H    0.975
     2   7 N    3.135 --     1 C    1.015     3 C    1.013     5 C    1.009
     3   6 C    3.991 --     2 N    1.013     4 C    1.003     7 H    0.942
                             6 H    0.928
     4   6 C    3.920 --     8 O    1.916     3 C    1.003    14 H    0.927
     5   6 C    3.981 --     2 N    1.009    10 H    0.984    15 H    0.982
                             9 H    0.975
     6   1 H    0.995 --     3 C    0.928
     7   1 H    0.996 --     3 C    0.942
     8   8 O    2.104 --     4 C    1.916
     9   1 H    0.998 --     5 C    0.975
    10   1 H    0.998 --     5 C    0.984
    11   1 H    0.999 --     1 C    0.982
    12   1 H    1.000 --     1 C    0.975
    13   1 H    0.998 --     1 C    0.981
    14   1 H    1.000 --     4 C    0.927
    15   1 H    0.999 --     5 C    0.982
 ---------------------------------------------------------------------------

molecular dipole:
                 x           y           z       tot (Debye)
 q only:        0.535      -0.742      -0.085
   full:        0.390      -0.880       0.099       2.459

           -------------------------------------------------
          | TOTAL ENERGY              -20.101290711919 Eh   |
          | GRADIENT NORM               0.000768307323 Eh/α |
          | HOMO-LUMO GAP               2.317181721369 eV   |
           -------------------------------------------------

 * finished run on 2023/11/18 at 08:12:33.013
