                               Psi4 1.6 release

  ==> Input File <==

--------------------------------------------------------------------------
molecule {
0 1
 N    2.967700   -1.225900    0.938300
 C    4.207900   -0.750700    0.463500
 C    5.417000   -0.912000    1.425500
 N    6.609300   -0.198000    0.919400
 O    4.378600   -0.195400   -0.626700
 H    5.638500   -1.984900    1.468800
 H    5.161100   -0.544900    2.425100
 H    2.126700   -1.148600    0.348700
 H    2.903100   -1.650200    1.874600
 H    7.171200    0.138500    1.714400
 H    7.175600   -0.839100    0.345700
}
set {
  geom_maxiter 400
  g_convergence GAU_LOOSE
  dynamic_level 1
}
geometric_keywords = {
 'coordsys' : 'tric',
 'convergence_cmax' : 1e0,
 'convergence_set' : 'GAU_LOOSE',
 'convergence_energy' : 1e-4,
}
memory 20GB
set_num_threads(5)
psi4_io.set_default_path("/scratch/liuchw/Psi4-25_27_Index_0-farH_in17")
basis {
assign 6-31G*
}
opt_finished = False
if not opt_finished:
    try:
        ener, opt_hist = optimize('mp2',engine='geometric',optimizer_keywords=geometric_keywords, return_history=True)
        opt_finished = len(opt_hist['energy']) < 400
    except Exception as e:
        core.print_out('Exception: %s'%(e))
if not opt_finished:
    try:
        optimize('mp2')
    except:
        set opt_coordinates both
        optimize('mp2')
    opt_finished = True
clean()
assert opt_finished

--------------------------------------------------------------------------

    Molecular point group: c1
  Charge       = 0
  Multiplicity = 1
  Basis Set: ANONYMOUS2804E6E0
    Blend: 6-31G*
  Basis Set: (ANONYMOUS2804E6E0 AUX)
    Blend: CC-PVDZ-JKFIT
  @DF-RHF Final Energy:  -262.97189280030153
    Total Energy =                       -262.9718928003015321
 Dipole X            :         -1.8740049            1.6965274           -0.1774774
 Dipole Y            :          0.7590560           -1.9204571           -1.1614012
 Dipole Z            :         -2.4375709            4.0956841            1.6581132
 Magnitude           :                                                    2.0321640
  Basis Set: (ANONYMOUS2804E6E0 AUX)
    Blend: CC-PVDZ-RI
    Molecular point group: c1
  Basis Set: ANONYMOUS2804E6E0
    Blend: 6-31G*
  Basis Set: (ANONYMOUS2804E6E0 AUX)
    Blend: CC-PVDZ-JKFIT
  Basis Set: (ANONYMOUS2804E6E0 AUX)
    Blend: CC-PVDZ-JKFIT
	 Reference Energy          =    -262.9718928003015321 [Eh]
	 Singles Energy            =      -0.0000000000000000 [Eh]
	 Same-Spin Energy          =      -0.2028985225853729 [Eh]
	 Opposite-Spin Energy      =      -0.5787056244240495 [Eh]
	 Correlation Energy        =      -0.7816041470094224 [Eh]
	 Total Energy              =    -263.7534969473109641 [Eh]
	 SCS Total Energy          =    -263.7339723904721609 [Eh]
  @DF-RHF Final Energy:  -262.98108816605946
    Total Energy =                       -262.9810881660594646
  @DF-RHF Final Energy:  -262.98507795665296
    Total Energy =                       -262.9850779566529582
  @DF-RHF Final Energy:  -262.98473852369483
    Total Energy =                       -262.9847385236948298
  @DF-RHF Final Energy:  -262.98538460541459
    Total Energy =                       -262.9853846054145947
  @DF-RHF Final Energy:  -262.98722589151635
    Total Energy =                       -262.9872258915163457
  @DF-RHF Final Energy:  -262.98920907757253
    Total Energy =                       -262.9892090775725251
  @DF-RHF Final Energy:  -262.98908868701540
    Total Energy =                       -262.9890886870153963
  @DF-RHF Final Energy:  -262.99075813531545
    Total Energy =                       -262.9907581353154455
  @DF-RHF Final Energy:  -262.99069345007388
    Total Energy =                       -262.9906934500738771
  @DF-RHF Final Energy:  -262.99058741580467
    Total Energy =                       -262.9905874158046686
  @DF-RHF Final Energy:  -262.99054625182850
    Total Energy =                       -262.9905462518285049
  @DF-RHF Final Energy:  -262.99044199949435
    Total Energy =                       -262.9904419994943510
  @DF-RHF Final Energy:  -262.99051861447902
    Total Energy =                       -262.9905186144790150
  @DF-RHF Final Energy:  -262.99061885151298
    Total Energy =                       -262.9906188515129770
  Charge       = 0
  Multiplicity = 1
  Basis Set: ANONYMOUS2804E6E0
    Blend: 6-31G*
  Basis Set: (ANONYMOUS2804E6E0 AUX)
    Blend: CC-PVDZ-JKFIT

    Orbital Energies [Eh]
    ---------------------

    Doubly Occupied:

       1A    -20.530750     2A    -15.594665     3A    -15.544474
       4A    -11.359353     5A    -11.270207     6A     -1.378193
       7A     -1.213835     8A     -1.179879     9A     -0.951969
      10A     -0.789050    11A     -0.726685    12A     -0.692728
      13A     -0.643546    14A     -0.622276    15A     -0.566103
      16A     -0.554664    17A     -0.537338    18A     -0.428727
      19A     -0.416098    20A     -0.393391

  @DF-RHF Final Energy:  -262.99061955052554

   => Energetics <=

    Nuclear Repulsion Energy =            180.1861294657698238
    One-Electron Energy =                -715.5656372647404169
    Two-Electron Energy =                 272.3888882484450846
    Total Energy =                       -262.9906195505255369
 Dipole X            :         -5.3246761            4.9004197           -0.4242563
 Dipole Y            :          7.9600390           -8.6111729           -0.6511340
 Dipole Z            :         -5.4124198            6.6323017            1.2198819
 Magnitude           :                                                    1.4464027
  Basis Set: (ANONYMOUS2804E6E0 AUX)
    Blend: CC-PVDZ-RI
    Molecular point group: c1
  Basis Set: ANONYMOUS2804E6E0
    Blend: 6-31G*
  Basis Set: (ANONYMOUS2804E6E0 AUX)
    Blend: CC-PVDZ-JKFIT
  Basis Set: (ANONYMOUS2804E6E0 AUX)
    Blend: CC-PVDZ-JKFIT
	 Reference Energy          =    -262.9906195505255369 [Eh]
	 Singles Energy            =      -0.0000000000000000 [Eh]
	 Same-Spin Energy          =      -0.2027302350108277 [Eh]
	 Opposite-Spin Energy      =      -0.5748173949595512 [Eh]
	 Correlation Energy        =      -0.7775476299703790 [Eh]
	 Total Energy              =    -263.7681671804959365 [Eh]

	 ================> DF-SCS-MP2 Energies <==================
	-----------------------------------------------------------
	 SCS Same-Spin Scale       =       0.3333333333333333 [-]
	 SCS Opposite-Spin Scale   =       1.2000000000000000 [-]
	 SCS Same-Spin Energy      =      -0.0675767450036092 [Eh]
	 SCS Opposite-Spin Energy  =      -0.6897808739514614 [Eh]
	 SCS Correlation Energy    =      -0.7573576189550706 [Eh]
	 SCS Total Energy          =    -263.7479771694806345 [Eh]
	-----------------------------------------------------------

  -Total Gradient:
     Atom            X                  Y                   Z
    ------   -----------------  -----------------  -----------------
       1        0.000037449439    -0.000048561252    -0.000020605339
       2        0.000032327290     0.000101519628     0.000014318178
       3       -0.000076592877    -0.000040025533    -0.000018489267
       4        0.000020781884     0.000006191259    -0.000002309072
       5       -0.000018805384    -0.000023865906    -0.000007095815
       6        0.000028920756     0.000010224762     0.000020936140
       7        0.000005953230     0.000010498785     0.000000766623
       8       -0.000030099038    -0.000000958831     0.000017122221
       9       -0.000004170562     0.000002417664    -0.000005766527
      10       -0.000011057834    -0.000019989047    -0.000008427809
      11        0.000015293097     0.000002548470     0.000009550666

    Molecular point group: c1

    Geometry (in Angstrom), charge = 0, multiplicity = 1:

    N           -1.657026541227    -0.551230501367     0.296174490440
    C           -0.405237468369    -0.247231345633    -0.158134952149
    C            0.707085784206    -0.345529209480     0.873872124336
    N            1.739581154808     0.622908783921     0.532338576373
    O           -0.166682687891    -0.000686258217    -1.338640085812
    H            1.036993681017    -1.398435722869     0.867784134451
    H            0.320442469609    -0.140449327496     1.878622231034
    H           -2.418819358415    -0.420310525638    -0.357127712374
    H           -1.875622792159    -0.486183373559     1.279593614348
    H            2.629612574337     0.343036170997     0.937241135067
    H            1.845073186672     0.605811716333    -0.481344307040

*** Psi4 exiting successfully. Buy a developer a beer!
