                               Psi4 1.6 release

  ==> Input File <==

--------------------------------------------------------------------------
molecule {
0 1
N -1.657026541227 -0.551230501367 0.29617449044
C -0.405237468369 -0.247231345633 -0.158134952149
C 0.707085784206 -0.34552920948 0.873872124336
N 1.739581154808 0.622908783921 0.532338576373
O -0.166682687891 -0.000686258217 -1.338640085812
H 1.036993681017 -1.398435722869 0.867784134451
H 0.320442469609 -0.140449327496 1.878622231034
H -2.418819358415 -0.420310525638 -0.357127712374
H -1.875622792159 -0.486183373559 1.279593614348
H 2.629612574337 0.343036170997 0.937241135067
H 1.845073186672 0.605811716333 -0.48134430704
no_reorient
}
memory 20GB
set_num_threads(5)
psi4_io.set_default_path("/scratch/liuchw/Psi4-25_27_Index_0-farH_in17")
set freeze_core True
set PROPERTIES_ORIGIN ["COM"]
set cubeprop_tasks ['esp']
set basis 6-311G**
E, wfn = properties('mp2',properties=['dipole'],return_wfn=True)
cubeprop(wfn)
fchk(wfn, "25_27_Index_0-dma.fchk")
clean()
--------------------------------------------------------------------------

    Molecular point group: c1
  Charge       = 0
  Multiplicity = 1
  Basis Set: 6-311G**
    Blend: 6-311G**
  Basis Set: (6-311G** AUX)
    Blend: CC-PVTZ-JKFIT

    Orbital Energies [Eh]
    ---------------------

    Doubly Occupied:

       1A    -20.517848     2A    -15.586105     3A    -15.535594
       4A    -11.356407     5A    -11.269985     6A     -1.379483
       7A     -1.214302     8A     -1.179832     9A     -0.951606
      10A     -0.789485    11A     -0.726654    12A     -0.693137
      13A     -0.643846    14A     -0.624339    15A     -0.566132
      16A     -0.555283    17A     -0.538651    18A     -0.430969
      19A     -0.418933    20A     -0.395512

  @DF-RHF Final Energy:  -263.06975472835285

   => Energetics <=

    Nuclear Repulsion Energy =            180.1861294657560393
    One-Electron Energy =                -715.7635637870671417
    Two-Electron Energy =                 272.5076795929582545
    Total Energy =                       -263.0697547283528479
  Basis Set: (6-311G** AUX)
    Blend: CC-PVTZ-RI
    Molecular point group: c1

    Geometry (in Angstrom), charge = 0, multiplicity = 1:

       Center              X                  Y                   Z               Mass
    ------------   -----------------  -----------------  -----------------  -----------------
         N           -1.706478711613    -0.448207770801     0.256522008081    14.003074004430
         C           -0.454689638755    -0.144208615067    -0.197787434508    12.000000000000
         C            0.657633613820    -0.242506478914     0.834219641977    12.000000000000
         N            1.690128984422     0.725931514487     0.492686094014    14.003074004430
         O           -0.216134858277     0.102336472349    -1.378292568171    15.994914619570
         H            0.987541510631    -1.295412992303     0.828131652092     1.007825032230
         H            0.270990299223    -0.037426596930     1.838969748675     1.007825032230
         H           -2.468271528801    -0.317287795072    -0.396780194733     1.007825032230
         H           -1.925074962545    -0.383160642993     1.239941131989     1.007825032230
         H            2.580160403951     0.446058901563     0.897588652708     1.007825032230
         H            1.795621016286     0.708834446899    -0.520996789399     1.007825032230

  Basis Set: 6-311G**
    Blend: 6-311G**
  Basis Set: (6-311G** AUX)
    Blend: CC-PVTZ-JKFIT
	 Reference Energy          =    -263.0697547283528479 [Eh]
	 Singles Energy            =      -0.0000000000000000 [Eh]
	 Same-Spin Energy          =      -0.2159949334183789 [Eh]
	 Opposite-Spin Energy      =      -0.6262183978438256 [Eh]
	 Correlation Energy        =      -0.8422133312622044 [Eh]
	 Total Energy              =    -263.9119680596150488 [Eh]

	 ================> DF-SCS-MP2 Energies <==================
	-----------------------------------------------------------
	 SCS Same-Spin Scale       =       0.3333333333333333 [-]
	 SCS Opposite-Spin Scale   =       1.2000000000000000 [-]
	 SCS Same-Spin Energy      =      -0.0719983111394596 [Eh]
	 SCS Opposite-Spin Energy  =      -0.7514620774125907 [Eh]
	 SCS Correlation Energy    =      -0.8234603885520504 [Eh]
	 SCS Total Energy          =    -263.8932151169049121 [Eh]
	-----------------------------------------------------------

 Dipole X            :         -1.6273021            1.1623774           -0.4649247
 Dipole Y            :          0.2384038           -0.8237831           -0.5853793
 Dipole Z            :         -2.6210016            3.6350084            1.0140068
 Magnitude           :                                                    1.2597753
  Basis Set: 6-311G**
    Blend: 6-311G**
*** Psi4 exiting successfully. Buy a developer a beer!
