                               Psi4 1.6 release

  ==> Input File <==

--------------------------------------------------------------------------
molecule {
1 1
N -0.435012429324 -0.780801156081 -2.023528592331
N -1.859059153986 2.922608837645 -0.435726405021
N 3.927339865409 -1.277377160371 1.533334452596
N 7.515494290303 -0.417106585173 2.214966428262
C -2.077192303057 0.724097625497 -1.04469681169
C -3.339556737374 1.180403910452 -0.471003765836
C -1.754312869682 -0.490881836898 -1.554699965906
C -1.143038985891 1.904658615708 -1.03963354677
C -3.156133387753 2.529480287437 -0.102039333233
C -4.552124961876 0.551430818441 -0.200865069648
C -2.763000785494 -1.561050364915 -1.694489545373
C -4.161508243522 3.27392927492 0.499554932795
C -5.57055188505 1.296209035382 0.402780154119
C -2.88707368943 -2.567659192791 -0.728624074249
C -3.662138482136 -1.515261470961 -2.767789264567
C 0.626494128613 -0.827905604845 -1.121976651436
C -3.903946757414 -3.514929149191 -0.835419486359
C -4.671573996473 -2.470096657043 -2.874886836555
C 0.437839590571 -0.99251347264 0.256469854175
C 1.942466053247 -0.783418355869 -1.606638734841
C -4.799820801418 -3.464650862287 -1.904451731347
C 1.529058132786 -1.124345898448 1.108723673803
C 3.033894633305 -0.907490793896 -0.760640142678
C 2.837594415396 -1.036352827543 0.621804578074
C 5.158280638167 -0.767848107396 1.333351928054
C 3.640875135392 -2.170305721782 2.665862968907
C 6.267045931519 -1.129610294605 2.341726409572
C 7.581537525816 0.985399351399 2.564961461452
C 8.425320698131 -0.833739572902 1.153100973452
C 7.350504972824 1.954027253349 1.387374384804
C 8.868507867152 0.358858632823 0.30061108119
C 7.802150269216 2.1736621791 -1.039667677858
C -5.379013269574 2.641452998782 0.74918539946
C -6.855214191372 0.59328285913 0.661213033909
C -9.039598776509 0.765824641135 1.495286981479
O -0.004922525755 1.998096857301 -1.492891273546
O 5.419217372042 -0.022968363428 0.356169395852
O -7.773446871559 1.404734617344 1.233016585545
O -7.064269440433 -0.579534755936 0.390855024397
N 7.686205778333 1.245839784249 0.111794593337
H 7.908236369352 1.589418813268 -1.953697030655
H -4.74110282252 -0.485889930596 -0.455391804786
H -0.190845221687 -0.289928256985 -2.881895184116
H -1.49115644981 3.864363725684 -0.363782855692
H -4.009860523179 4.314877382664 0.773922407393
H -2.191703234051 -2.606630517173 0.106497837998
H -3.576883854429 -0.720369894742 -3.505936357516
H -4.005182292799 -4.28696734126 -0.077076585491
H -5.368678290464 -2.428500552733 -3.707664149637
H -0.563973939517 -1.020539759796 0.673419523586
H 2.110764060109 -0.677518111685 -2.676277277693
H -5.597751369627 -4.198187761271 -1.979807589994
H 1.337093147454 -1.22462516723 2.17247517335
H 4.030314487791 -0.881427466691 -1.178191136598
H 4.550423091658 -2.634470908863 3.036901809411
H 6.484740300322 -2.202171972381 2.269825282098
H 8.568334500836 1.18558837403 3.000119103664
H 7.91743268413 -1.557123884117 0.506572730573
H 7.985177893778 2.841869455053 1.467682687104
H 9.223955735589 0.033432920953 -0.67997696914
H 6.895878715061 2.777646906758 -1.090337107306
H 2.971405460916 -2.955569534393 2.317206447845
H 5.897520959421 -0.965262579153 3.360338429381
H 6.851939008194 1.190323288626 3.352979005569
H 9.321656359687 -1.32538520981 1.556501814718
H 6.307351081586 2.260996778582 1.294652080946
H 9.658157379565 0.949537979101 0.773667732855
H 8.673693941781 2.814253196011 -0.899300704445
H 3.164025341683 -1.627317913899 3.486079984048
H -6.189906357688 3.192748562374 1.213638615504
H -8.905496333707 -0.072828283912 2.179091346399
H -9.65744611959 1.539498202233 1.945244623879
H -9.481028157682 0.40631989866 0.565380840595
H 6.836685972817 0.620511554705 -0.004094039179
}
memory 208GB
set_num_threads(51)
psi4_io.set_default_path("/scratch/liuchw/Psi4-farH_in17")
set maxiter 500
set freeze_core True
set PROPERTIES_ORIGIN ["COM"]
set cubeprop_tasks ['esp']
set basis aug-cc-pVTZ
E, wfn = properties('mp2',properties=['dipole','GRID_ESP','WIBERG_LOWDIN_INDICES','MULLIKEN_CHARGES'],return_wfn=True)
cubeprop(wfn)
fchk(wfn, "farH_in17-esp.fchk")
clean()
--------------------------------------------------------------------------

    Molecular point group: c1
  Charge       = 1
  Multiplicity = 1
  Basis Set: AUG-CC-PVTZ
    Blend: AUG-CC-PVTZ
  Basis Set: (AUG-CC-PVTZ AUX)
    Blend: AUG-CC-PVTZ-JKFIT

    Orbital Energies [Eh]
    ---------------------

    Doubly Occupied:

       1A    -20.649844     2A    -20.647590     3A    -20.599002
       4A    -20.586113     5A    -15.791972     6A    -15.717930
       7A    -15.682547     8A    -15.674306     9A    -15.642702
      10A    -11.478551    11A    -11.432474    12A    -11.429341
      13A    -11.416033    14A    -11.408953    15A    -11.408399
      16A    -11.398924    17A    -11.394668    18A    -11.394072
      19A    -11.371211    20A    -11.370370    21A    -11.363036
      22A    -11.355762    23A    -11.354270    24A    -11.326998
      25A    -11.322727    26A    -11.321166    27A    -11.316244
      28A    -11.315770    29A    -11.312361    30A    -11.308688
      31A    -11.307719    32A    -11.303501    33A    -11.302397
      34A    -11.302140    35A    -11.300109    36A    -11.299304
      37A    -11.297741    38A    -11.295126    39A    -11.294165
      40A    -11.292418    41A     -1.505943    42A     -1.500247
      43A     -1.453497    44A     -1.452463    45A     -1.396899
      46A     -1.371306    47A     -1.363116    48A     -1.350244
      49A     -1.329583    50A     -1.227212    51A     -1.214854
      52A     -1.209177    53A     -1.183066    54A     -1.162972
      55A     -1.155698    56A     -1.108226    57A     -1.099172
      58A     -1.095905    59A     -1.095617    60A     -1.075166
      61A     -1.074100    62A     -1.065802    63A     -1.052876
      64A     -1.034288    65A     -1.024761    66A     -1.013221
      67A     -0.976217    68A     -0.939889    69A     -0.923790
      70A     -0.919631    71A     -0.915468    72A     -0.896122
      73A     -0.887116    74A     -0.873983    75A     -0.868413
      76A     -0.848782    77A     -0.836317    78A     -0.826313
      79A     -0.824312    80A     -0.820468    81A     -0.805708
      82A     -0.794786    83A     -0.788816    84A     -0.779581
      85A     -0.775178    86A     -0.773282    87A     -0.759746
      88A     -0.752776    89A     -0.738754    90A     -0.735400
      91A     -0.732350    92A     -0.728720    93A     -0.719665
      94A     -0.713808    95A     -0.712483    96A     -0.707976
      97A     -0.706671    98A     -0.702423    99A     -0.701435
     100A     -0.699875   101A     -0.687736   102A     -0.682205
     103A     -0.679787   104A     -0.678685   105A     -0.673447
     106A     -0.670873   107A     -0.670156   108A     -0.666148
     109A     -0.662621   110A     -0.660555   111A     -0.655365
     112A     -0.648505   113A     -0.645742   114A     -0.638747
     115A     -0.637249   116A     -0.629631   117A     -0.623326
     118A     -0.616209   119A     -0.610030   120A     -0.604174
     121A     -0.600586   122A     -0.584279   123A     -0.579761
     124A     -0.573262   125A     -0.569825   126A     -0.563936
     127A     -0.557003   128A     -0.554666   129A     -0.547765
     130A     -0.541878   131A     -0.515070   132A     -0.506462
     133A     -0.504001   134A     -0.496215   135A     -0.484096
     136A     -0.481967   137A     -0.478760   138A     -0.417443
     139A     -0.400259   140A     -0.395737   141A     -0.390851
     142A     -0.366264   143A     -0.359352

  @DF-RHF Final Energy: -1765.82134954816343

   => Energetics <=

    Nuclear Repulsion Energy =           4340.6304344433920051
    One-Electron Energy =              -11020.7056973980852490
    Two-Electron Energy =                4914.2539134065300459
    Total Energy =                      -1765.8213495481631981
  Basis Set: (AUG-CC-PVTZ AUX)
    Blend: AUG-CC-PVTZ-RI
    Molecular point group: c1

    Geometry (in Angstrom), charge = 1, multiplicity = 1:

       Center              X                  Y                   Z               Mass
    ------------   -----------------  -----------------  -----------------  -----------------
         N           -0.612042877996    -0.786718454603    -2.052504986289    14.003074004430
         N           -2.036089602658     2.916691539123    -0.464702798979    14.003074004430
         N            3.750309416737    -1.283294458893     1.504358058638    14.003074004430
         N            7.338463841631    -0.423023883695     2.185990034304    14.003074004430
         C           -2.254222751729     0.718180326975    -1.073673205648    12.000000000000
         C           -3.516587186046     1.174486611930    -0.499980159794    12.000000000000
         C           -1.931343318354    -0.496799135420    -1.583676359864    12.000000000000
         C           -1.320069434563     1.898741317186    -1.068609940728    12.000000000000
         C           -3.333163836425     2.523562988915    -0.131015727191    12.000000000000
         C           -4.729155410548     0.545513519919    -0.229841463606    12.000000000000
         C           -2.940031234166    -1.566967663437    -1.723465939331    12.000000000000
         C           -4.338538692194     3.268011976398     0.470578538837    12.000000000000
         C           -5.747582333722     1.290291736860     0.373803760161    12.000000000000
         C           -3.064104138102    -2.573576491313    -0.757600468207    12.000000000000
         C           -3.839168930808    -1.521178769483    -2.796765658525    12.000000000000
         C            0.449463679941    -0.833822903367    -1.150953045394    12.000000000000
         C           -4.080977206086    -3.520846447713    -0.864395880317    12.000000000000
         C           -4.848604445145    -2.476013955565    -2.903863230513    12.000000000000
         C            0.260809141899    -0.998430771162     0.227493460217    12.000000000000
         C            1.765435604575    -0.789335654391    -1.635615128799    12.000000000000
         C           -4.976851250090    -3.470568160809    -1.933428125305    12.000000000000
         C            1.352027684114    -1.130263196970     1.079747279845    12.000000000000
         C            2.856864184633    -0.913408092418    -0.789616536636    12.000000000000
         C            2.660563966724    -1.042270126065     0.592828184116    12.000000000000
         C            4.981250189495    -0.773765405918     1.304375534096    12.000000000000
         C            3.463844686720    -2.176223020304     2.636886574949    12.000000000000
         C            6.090015482847    -1.135527593127     2.312750015614    12.000000000000
         C            7.404507077144     0.979482052877     2.535985067494    12.000000000000
         C            8.248290249459    -0.839656871424     1.124124579494    12.000000000000
         C            7.173474524152     1.948109954827     1.358397990846    12.000000000000
         C            8.691477418480     0.352941334301     0.271634687232    12.000000000000
         C            7.625119820544     2.167744880578    -1.068644071816    12.000000000000
         C           -5.556043718246     2.635535700260     0.720209005502    12.000000000000
         C           -7.032244640044     0.587365560608     0.632236639951    12.000000000000
         C           -9.216629225181     0.759907342613     1.466310587521    12.000000000000
         O           -0.181952974427     1.992179558779    -1.521867667504    15.994914619570
         O            5.242186923370    -0.028885661950     0.327193001894    15.994914619570
         O           -7.950477320231     1.398817318822     1.204040191587    15.994914619570
         O           -7.241299889105    -0.585452054458     0.361878630439    15.994914619570
         N            7.509175329661     1.239922485727     0.082818199379    14.003074004430
         H            7.731205920680     1.583501514746    -1.982673424613     1.007825032230
         H           -4.918133271192    -0.491807229118    -0.484368198744     1.007825032230
         H           -0.367875670359    -0.295845555507    -2.910871578074     1.007825032230
         H           -1.668186898482     3.858446427162    -0.392759249650     1.007825032230
         H           -4.186890971851     4.308960084142     0.744946013435     1.007825032230
         H           -2.368733682723    -2.612547815695     0.077521444040     1.007825032230
         H           -3.753914303101    -0.726287193264    -3.534912751474     1.007825032230
         H           -4.182212741471    -4.292884639782    -0.106052979449     1.007825032230
         H           -5.545708739136    -2.434417851255    -3.736640543595     1.007825032230
         H           -0.741004388189    -1.026457058318     0.644443129628     1.007825032230
         H            1.933733611437    -0.683435410207    -2.705253671651     1.007825032230
         H           -5.774781818299    -4.204105059793    -2.008783983952     1.007825032230
         H            1.160062698782    -1.230542465752     2.143498779392     1.007825032230
         H            3.853284039119    -0.887344765213    -1.207167530556     1.007825032230
         H            4.373392642986    -2.640388207385     3.007925415453     1.007825032230
         H            6.307709851650    -2.208089270903     2.240848888140     1.007825032230
         H            8.391304052164     1.179671075508     2.971142709706     1.007825032230
         H            7.740402235458    -1.563041182639     0.477596336615     1.007825032230
         H            7.808147445106     2.835952156531     1.438706293146     1.007825032230
         H            9.046925286917     0.027515622431    -0.708953363098     1.007825032230
         H            6.718848266389     2.771729608236    -1.119313501264     1.007825032230
         H            2.794375012244    -2.961486832915     2.288230053887     1.007825032230
         H            5.720490510749    -0.971179877675     3.331362035423     1.007825032230
         H            6.674908559522     1.184405990104     3.324002611611     1.007825032230
         H            9.144625911015    -1.331302508332     1.527525420760     1.007825032230
         H            6.130320632914     2.255079480060     1.265675686988     1.007825032230
         H            9.481126930893     0.943620680579     0.744691338897     1.007825032230
         H            8.496663493109     2.808335897489    -0.928277098403     1.007825032230
         H            2.986994893011    -1.633235212421     3.457103590090     1.007825032230
         H           -6.366936806360     3.186831263852     1.184662221546     1.007825032230
         H           -9.082526782379    -0.078745582434     2.150114952441     1.007825032230
         H           -9.834476568262     1.533580903711     1.916268229921     1.007825032230
         H           -9.658058606354     0.400402600138     0.536404446637     1.007825032230
         H            6.659655524145     0.614594256183    -0.033070433137     1.007825032230

  Basis Set: AUG-CC-PVTZ
    Blend: AUG-CC-PVTZ
  Basis Set: (AUG-CC-PVTZ AUX)
    Blend: AUG-CC-PVTZ-JKFIT
	 Reference Energy          =   -1765.8213495481634254 [Eh]
	 Singles Energy            =      -0.0000000000000000 [Eh]
	 Same-Spin Energy          =      -1.8028314471681255 [Eh]
	 Opposite-Spin Energy      =      -5.2440020256622653 [Eh]
	 Correlation Energy        =      -7.0468334728303912 [Eh]
	 Total Energy              =   -1772.8681830209939108 [Eh]

	 ================> DF-SCS-MP2 Energies <==================
	-----------------------------------------------------------
	 SCS Same-Spin Scale       =       0.3333333333333333 [-]
	 SCS Opposite-Spin Scale   =       1.2000000000000000 [-]
	 SCS Same-Spin Energy      =      -0.6009438157227085 [Eh]
	 SCS Opposite-Spin Energy  =      -6.2928024307947181 [Eh]
	 SCS Correlation Energy    =      -6.8937462465174262 [Eh]
	 SCS Total Energy          =   -1772.7150957946807921 [Eh]
	-----------------------------------------------------------

 Dipole X            :        -41.6366737           51.1890122            9.5523385
 Dipole Y            :          4.0138792           -2.5981391            1.4157401
 Dipole Z            :        -11.0346392           12.7604435            1.7258043
 Magnitude           :                                                    9.8096836

  Mulliken Charges: (a.u.)
   Center  Symbol    Alpha    Beta     Spin     Total
       1     N     4.01823  4.01823  0.00000 -1.03646
       2     N     3.54883  3.54883  0.00000 -0.09766
       3     N     3.53165  3.53165  0.00000 -0.06330
       4     N     3.66793  3.66793  0.00000 -0.33586
       5     C     2.55093  2.55093  0.00000  0.89815
       6     C     1.90027  1.90027  0.00000  2.19945
       7     C     3.19324  3.19324  0.00000 -0.38647
       8     C     3.02473  3.02473  0.00000 -0.04945
       9     C     3.11632  3.11632  0.00000 -0.23264
      10     C     3.69278  3.69278  0.00000 -1.38556
      11     C     2.17806  2.17806  0.00000  1.64387
      12     C     3.53688  3.53688  0.00000 -1.07376
      13     C     2.23188  2.23188  0.00000  1.53623
      14     C     3.43066  3.43066  0.00000 -0.86132
      15     C     3.45657  3.45657  0.00000 -0.91315
      16     C     2.17427  2.17427  0.00000  1.65146
      17     C     3.41885  3.41885  0.00000 -0.83770
      18     C     3.25929  3.25929  0.00000 -0.51858
      19     C     3.05801  3.05801  0.00000 -0.11602
      20     C     3.47397  3.47397  0.00000 -0.94794
      21     C     3.08546  3.08546  0.00000 -0.17092
      22     C     3.63080  3.63080  0.00000 -1.26160
      23     C     3.21801  3.21801  0.00000 -0.43602
      24     C     2.06867  2.06867  0.00000  1.86267
      25     C     2.87302  2.87302  0.00000  0.25396
      26     C     3.66715  3.66715  0.00000 -1.33430
      27     C     3.08800  3.08800  0.00000 -0.17600
      28     C     3.33620  3.33620  0.00000 -0.67240
      29     C     3.32815  3.32815  0.00000 -0.65630
      30     C     3.29696  3.29696  0.00000 -0.59392
      31     C     3.32344  3.32344  0.00000 -0.64688
      32     C     3.56200  3.56200  0.00000 -1.12400
      33     C     3.05117  3.05117  0.00000 -0.10234
      34     C     2.73745  2.73745  0.00000  0.52510
      35     C     3.49878  3.49878  0.00000 -0.99757
      36     O     4.50009  4.50009  0.00000 -1.00019
      37     O     4.32655  4.32655  0.00000 -0.65311
      38     O     4.15438  4.15438  0.00000 -0.30877
      39     O     4.46402  4.46402  0.00000 -0.92803
      40     N     2.95677  2.95677  0.00000  1.08646
      41     H     0.33109  0.33109  0.00000  0.33782
      42     H     0.49861  0.49861  0.00000  0.00279
      43     H     0.59707  0.59707  0.00000 -0.19414
      44     H     0.49018  0.49018  0.00000  0.01964
      45     H     0.23793  0.23793  0.00000  0.52415
      46     H     0.31612  0.31612  0.00000  0.36776
      47     H     0.42731  0.42731  0.00000  0.14539
      48     H     0.31326  0.31326  0.00000  0.37348
      49     H     0.29202  0.29202  0.00000  0.41596
      50     H     0.45597  0.45597  0.00000  0.08806
      51     H     0.45045  0.45045  0.00000  0.09909
      52     H     0.21718  0.21718  0.00000  0.56563
      53     H     0.49202  0.49202  0.00000  0.01596
      54     H     0.31586  0.31586  0.00000  0.36828
      55     H     0.35128  0.35128  0.00000  0.29743
      56     H     0.31594  0.31594  0.00000  0.36811
      57     H     0.40728  0.40728  0.00000  0.18544
      58     H     0.36795  0.36795  0.00000  0.26410
      59     H     0.37811  0.37811  0.00000  0.24377
      60     H     0.33002  0.33002  0.00000  0.33997
      61     H     0.33654  0.33654  0.00000  0.32692
      62     H     0.33937  0.33937  0.00000  0.32126
      63     H     0.37621  0.37621  0.00000  0.24759
      64     H     0.33826  0.33826  0.00000  0.32349
      65     H     0.32988  0.32988  0.00000  0.34024
      66     H     0.34867  0.34867  0.00000  0.30266
      67     H     0.39480  0.39480  0.00000  0.21039
      68     H     0.34883  0.34883  0.00000  0.30233
      69     H     0.28362  0.28362  0.00000  0.43276
      70     H     0.35790  0.35790  0.00000  0.28420
      71     H     0.30149  0.30149  0.00000  0.39702
      72     H     0.32962  0.32962  0.00000  0.34076
      73     H     0.29952  0.29952  0.00000  0.40095
      74     H     0.39920  0.39920  0.00000  0.20160

   Total alpha = 143.00000, Total beta = 143.00000, Total charge =  1.00000

  Basis Set: AUG-CC-PVTZ
    Blend: AUG-CC-PVTZ
*** Psi4 exiting successfully. Buy a developer a beer!
