                               Psi4 1.6 release

  ==> Input File <==

--------------------------------------------------------------------------
molecule {
1 1
 N   -1.869500   -0.604800   -2.056000
 N   -3.522500    3.048500   -0.304000
 N    2.967700   -1.225900    0.938300
 N    6.609300   -0.198000    0.919400
 C   -3.569300    0.849600   -1.009400
 C   -4.889100    1.211400   -0.436900
 C   -3.132000   -0.308900   -1.556000
 C   -2.710400    2.097600   -0.897300
 C   -4.787200    2.548300   -0.037000
 C   -6.081500    0.535200   -0.223500
 C   -4.064500   -1.440900   -1.761700
 C   -5.824800    3.248400    0.548200
 C   -7.161900    1.216300    0.371500
 C   -4.118300   -2.500300   -0.845900
 C   -4.891400   -1.471400   -2.894900
 C   -0.690300   -0.693300   -1.276900
 C   -5.004600   -3.560200   -1.046900
 C   -5.776500   -2.532600   -3.092600
 C   -0.699000   -0.876100    0.106100
 C    0.545700   -0.746700   -1.926200
 C   -5.835000   -3.573300   -2.166800
 C    0.496400   -1.040200    0.823600
 C    1.741100   -0.912600   -1.209900
 C    1.746200   -1.050800    0.182500
 C    4.207900   -0.750700    0.463500
 C    2.836100   -1.830700    2.266900
 C    5.417000   -0.912000    1.425500
 C    6.490300    1.264400    0.984300
 C    7.862500   -0.649200    1.540900
 C    7.579700    1.964000    0.134000
 C    9.073600    0.297700    1.305400
 C   10.063400    2.007500   -0.249000
 C   -7.027200    2.569200    0.751000
 C   -8.427800    0.459100    0.585700
 C  -10.636100    0.611800    1.329500
 O   -1.565700    2.293500   -1.257500
 O    4.378600   -0.195400   -0.626700
 O   -9.386700    1.266900    1.102500
 O   -8.557700   -0.725300    0.321900
 N    8.877000    1.153900    0.067600
 H   10.925500    1.350500   -0.390400
 H   -6.205200   -0.506500   -0.499700
 H   -1.681300   -0.100100   -2.921100
 H   -3.205200    3.987900   -0.120200
 H   -5.717600    4.286100    0.844400
 H   -3.471500   -2.506000    0.026600
 H   -4.853100   -0.667500   -3.625700
 H   -5.048000   -4.376200   -0.330300
 H   -6.421300   -2.548000   -3.967600
 H   -1.635600   -0.881500    0.655300
 H    0.596700   -0.665300   -3.009300
 H   -6.527600   -4.397500   -2.319600
 H    0.405700   -1.131600    1.901500
 H    2.653700   -0.969700   -1.794500
 H    3.761900   -2.313800    2.585000
 H    5.638500   -1.984900    1.468800
 H    6.572900    1.598000    2.027600
 H    8.111400   -1.635000    1.129800
 H    7.817300    2.944100    0.561500
 H    9.994300   -0.278300    1.166400
 H    9.852300    2.551900   -1.173100
 H    2.072800   -2.615500    2.262000
 H    5.161100   -0.544900    2.425100
 H    5.517900    1.623500    0.630900
 H    7.742600   -0.778300    2.624200
 H    7.252900    2.084900   -0.904200
 H    9.195000    0.989200    2.147000
 H   10.231500    2.697000    0.582500
 H    2.582700   -1.048300    2.988800
 H   -7.857200    3.101100    1.211800
 H  -10.517400   -0.198700    2.055500
 H  -11.333400    1.346400    1.741500
 H  -11.047200    0.233600    0.388200
 H    8.771100    0.509800   -0.732200
}
set {
  geom_maxiter 400
  g_convergence GAU_LOOSE
  dynamic_level 1
}
geometric_keywords = {
 'coordsys' : 'tric',
 'convergence_cmax' : 1e0,
 'convergence_set' : 'GAU_LOOSE',
 'convergence_energy' : 1e-4,
 'constraints' : {
 'set' : [
       {'type'    : 'dihedral', 'indices' : [ 42 , 0 , 6 , 4 ], 'value' : 290.0396 }
     , {'type'    : 'dihedral', 'indices' : [ 15 , 0 , 6 , 4 ], 'value' : 66.6596 }
     , {'type'    : 'dihedral', 'indices' : [ 42 , 0 , 15 , 18 ], 'value' : 156.2896 }
     , {'type'    : 'dihedral', 'indices' : [ 6 , 0 , 15 , 18 ], 'value' : 19.1551 }
     , {'type'    : 'dihedral', 'indices' : [ 24 , 2 , 23 , 21 ], 'value' : 204.6383 }
     , {'type'    : 'dihedral', 'indices' : [ 23 , 2 , 25 , 54 ], 'value' : 155.4970 }
     , {'type'    : 'dihedral', 'indices' : [ 27 , 3 , 26 , 24 ], 'value' : 70.4581 }
     , {'type'    : 'dihedral', 'indices' : [ 0 , 6 , 10 , 13 ], 'value' : 84.6599 }
     , {'type'    : 'dihedral', 'indices' : [ 2 , 24 , 26 , 3 ], 'value' : 188.8377 }
     , {'type'    : 'dihedral', 'indices' : [ 12 , 33 , 37 , 34 ], 'value' : 179.6723 }
    ]
  }
}
set optking {
  frozen_dihedral = ("
   43 1 7 5
   16 1 7 5
   43 1 16 19
   7 1 16 19
   25 3 24 22
   24 3 26 55
   28 4 27 25
   1 7 11 14
   3 25 27 4
   13 34 38 35
  ")
}
memory 208GB
set_num_threads(51)
psi4_io.set_default_path("/scratch/liuchw/Psi4-farH_in17")
basis {
assign 6-31G*
}
opt_finished = False
if not opt_finished:
    try:
        ener, opt_hist = optimize('mp2',engine='geometric',optimizer_keywords=geometric_keywords, return_history=True)
        opt_finished = len(opt_hist['energy']) < 400
    except Exception as e:
        core.print_out('Exception: %s'%(e))
if not opt_finished:
    try:
        optimize('mp2')
    except:
        set opt_coordinates both
        optimize('mp2')
    opt_finished = True
clean()
assert opt_finished

--------------------------------------------------------------------------

    Molecular point group: c1
  Charge       = 1
  Multiplicity = 1
  Basis Set: ANONYMOUSF9D24158
    Blend: 6-31G*
  Basis Set: (ANONYMOUSF9D24158 AUX)
    Blend: CC-PVDZ-JKFIT
  @DF-RHF Final Energy: -1765.18418725288757
    Total Energy =                      -1765.1841872528875683
 Dipole X            :        -49.1264211           64.3027086           15.1762875
 Dipole Y            :          4.2154411           -2.2110829            2.0043582
 Dipole Z            :        -12.2172897           14.7847256            2.5674359
 Magnitude           :                                                   15.5218839
  Basis Set: (ANONYMOUSF9D24158 AUX)
    Blend: CC-PVDZ-RI
    Molecular point group: c1
  Basis Set: ANONYMOUSF9D24158
    Blend: 6-31G*
  Basis Set: (ANONYMOUSF9D24158 AUX)
    Blend: CC-PVDZ-JKFIT
  Basis Set: (ANONYMOUSF9D24158 AUX)
    Blend: CC-PVDZ-JKFIT
	 Reference Energy          =   -1765.1841872528875683 [Eh]
	 Singles Energy            =      -0.0000000000000000 [Eh]
	 Same-Spin Energy          =      -1.5203287033394242 [Eh]
	 Opposite-Spin Energy      =      -4.1396572622525634 [Eh]
	 Correlation Energy        =      -5.6599859655919875 [Eh]
	 Total Energy              =   -1770.8441732184794546 [Eh]
	 SCS Total Energy          =   -1770.6585522020370718 [Eh]
  @DF-RHF Final Energy: -1765.18969182259070
    Total Energy =                      -1765.1896918225902482
  @DF-RHF Final Energy: -1765.19558291013777
    Total Energy =                      -1765.1955829101380004
  @DF-RHF Final Energy: -1765.19576235226691
    Total Energy =                      -1765.1957623522666836
  @DF-RHF Final Energy: -1765.20032026503532
    Total Energy =                      -1765.2003202650357707
  @DF-RHF Final Energy: -1765.19618998804367
    Total Energy =                      -1765.1961899880434430
  @DF-RHF Final Energy: -1765.20055625812051
    Total Energy =                      -1765.2005562581207414
  @DF-RHF Final Energy: -1765.20298794368273
    Total Energy =                      -1765.2029879436831834
  @DF-RHF Final Energy: -1765.20315778864210
    Total Energy =                      -1765.2031577886418745
  @DF-RHF Final Energy: -1765.20206575121711
    Total Energy =                      -1765.2020657512166508
  @DF-RHF Final Energy: -1765.20213098470822
    Total Energy =                      -1765.2021309847077646
  @DF-RHF Final Energy: -1765.20402431854609
    Total Energy =                      -1765.2040243185465442
  @DF-RHF Final Energy: -1765.20464512576177
    Total Energy =                      -1765.2046451257619992
  @DF-RHF Final Energy: -1765.20329376630480
    Total Energy =                      -1765.2032937663052508
  @DF-RHF Final Energy: -1765.20369420632665
    Total Energy =                      -1765.2036942063268725
  @DF-RHF Final Energy: -1765.20531788545100
    Total Energy =                      -1765.2053178854512225
  @DF-RHF Final Energy: -1765.21134740168759
    Total Energy =                      -1765.2113474016878172
  @DF-RHF Final Energy: -1765.20935926273978
    Total Energy =                      -1765.2093592627397811
  @DF-RHF Final Energy: -1765.20329663915709
    Total Energy =                      -1765.2032966391570881
  @DF-RHF Final Energy: -1765.21187764461729
    Total Energy =                      -1765.2118776446168340
  @DF-RHF Final Energy: -1765.21603450131533
    Total Energy =                      -1765.2160345013153346
  @DF-RHF Final Energy: -1765.21600206802350
    Total Energy =                      -1765.2160020680230446
  @DF-RHF Final Energy: -1765.21574120642845
    Total Energy =                      -1765.2157412064289019
  @DF-RHF Final Energy: -1765.21507024172774
    Total Energy =                      -1765.2150702417275170
  @DF-RHF Final Energy: -1765.21581786075672
    Total Energy =                      -1765.2158178607569425
  @DF-RHF Final Energy: -1765.21700775102704
    Total Energy =                      -1765.2170077510272677
  @DF-RHF Final Energy: -1765.21728945739073
    Total Energy =                      -1765.2172894573905069
  @DF-RHF Final Energy: -1765.21621625018088
    Total Energy =                      -1765.2162162501808780
  @DF-RHF Final Energy: -1765.21697215553081
    Total Energy =                      -1765.2169721555310389
  @DF-RHF Final Energy: -1765.21724310520904
    Total Energy =                      -1765.2172431052094907
  @DF-RHF Final Energy: -1765.21723276102944
    Total Energy =                      -1765.2172327610296634
  @DF-RHF Final Energy: -1765.21719353222352
    Total Energy =                      -1765.2171935322239733
  @DF-RHF Final Energy: -1765.21716410183899
    Total Energy =                      -1765.2171641018394439
  @DF-RHF Final Energy: -1765.21719735481747
    Total Energy =                      -1765.2171973548174719
  @DF-RHF Final Energy: -1765.21720256155481
    Total Energy =                      -1765.2172025615545863
  @DF-RHF Final Energy: -1765.21719348085321
    Total Energy =                      -1765.2171934808529841
  @DF-RHF Final Energy: -1765.21716924940301
    Total Energy =                      -1765.2171692494030140
  @DF-RHF Final Energy: -1765.21718464130186
    Total Energy =                      -1765.2171846413020830
  @DF-RHF Final Energy: -1765.21718038186577
    Total Energy =                      -1765.2171803818655462
  Charge       = 1
  Multiplicity = 1
  Basis Set: ANONYMOUSF9D24158
    Blend: 6-31G*
  Basis Set: (ANONYMOUSF9D24158 AUX)
    Blend: CC-PVDZ-JKFIT

    Orbital Energies [Eh]
    ---------------------

    Doubly Occupied:

       1A    -20.658235     2A    -20.654240     3A    -20.603895
       4A    -20.592325     5A    -15.800837     6A    -15.723033
       7A    -15.690040     8A    -15.675251     9A    -15.643852
      10A    -11.482959    11A    -11.432109    12A    -11.430823
      13A    -11.420557    14A    -11.412895    15A    -11.412351
      16A    -11.400636    17A    -11.398038    18A    -11.397181
      19A    -11.372882    20A    -11.367239    21A    -11.361323
      22A    -11.354253    23A    -11.353705    24A    -11.327439
      25A    -11.321541    26A    -11.320798    27A    -11.315338
      28A    -11.314270    29A    -11.310528    30A    -11.306571
      31A    -11.304583    32A    -11.302329    33A    -11.301428
      34A    -11.300962    35A    -11.298191    36A    -11.297329
      37A    -11.295701    38A    -11.292889    39A    -11.291883
      40A    -11.290536    41A     -1.505662    42A     -1.497486
      43A     -1.457824    44A     -1.449301    45A     -1.393337
      46A     -1.370920    47A     -1.365370    48A     -1.346426
      49A     -1.325524    50A     -1.222951    51A     -1.210747
      52A     -1.204843    53A     -1.186920    54A     -1.164640
      55A     -1.152860    56A     -1.107572    57A     -1.096326
      58A     -1.094008    59A     -1.091799    60A     -1.072489
      61A     -1.070191    62A     -1.065962    63A     -1.049615
      64A     -1.036694    65A     -1.027028    66A     -1.011481
      67A     -0.972461    68A     -0.941335    69A     -0.922033
      70A     -0.916942    71A     -0.912617    72A     -0.891333
      73A     -0.882065    74A     -0.869798    75A     -0.867728
      76A     -0.850121    77A     -0.833224    78A     -0.827455
      79A     -0.825644    80A     -0.817140    81A     -0.804904
      82A     -0.791339    83A     -0.787266    84A     -0.778963
      85A     -0.773093    86A     -0.769901    87A     -0.756996
      88A     -0.751873    89A     -0.737881    90A     -0.735404
      91A     -0.732026    92A     -0.724245    93A     -0.720022
      94A     -0.710483    95A     -0.710010    96A     -0.705595
      97A     -0.704655    98A     -0.703033    99A     -0.702216
     100A     -0.697032   101A     -0.682338   102A     -0.678218
     103A     -0.675415   104A     -0.673096   105A     -0.672179
     106A     -0.667439   107A     -0.666434   108A     -0.664354
     109A     -0.663654   110A     -0.660757   111A     -0.653756
     112A     -0.644329   113A     -0.641480   114A     -0.638739
     115A     -0.634088   116A     -0.630181   117A     -0.622615
     118A     -0.614746   119A     -0.605554   120A     -0.600138
     121A     -0.595984   122A     -0.580231   123A     -0.575984
     124A     -0.567153   125A     -0.565417   126A     -0.558800
     127A     -0.552476   128A     -0.550688   129A     -0.541854
     130A     -0.536849   131A     -0.508586   132A     -0.499973
     133A     -0.497325   134A     -0.489383   135A     -0.477621
     136A     -0.477563   137A     -0.475289   138A     -0.412220
     139A     -0.393741   140A     -0.389245   141A     -0.384679
     142A     -0.359948   143A     -0.353301

  @DF-RHF Final Energy: -1765.21716698921819

   => Energetics <=

    Nuclear Repulsion Energy =           4340.6304344433510778
    One-Electron Energy =              -11019.9559842066901183
    Two-Electron Energy =                4914.1083827741204004
    Total Energy =                      -1765.2171669892186401
 Dipole X            :       -136.8418646          147.2017235           10.3598589
 Dipole Y            :          0.8013612            0.6111160            1.4124772
 Dipole Z            :        -26.5319440           28.4758312            1.9438872
 Magnitude           :                                                   10.6348703
  Basis Set: (ANONYMOUSF9D24158 AUX)
    Blend: CC-PVDZ-RI
    Molecular point group: c1
  Basis Set: ANONYMOUSF9D24158
    Blend: 6-31G*
  Basis Set: (ANONYMOUSF9D24158 AUX)
    Blend: CC-PVDZ-JKFIT
  Basis Set: (ANONYMOUSF9D24158 AUX)
    Blend: CC-PVDZ-JKFIT
	 Reference Energy          =   -1765.2171669892181853 [Eh]
	 Singles Energy            =      -0.0000000000000000 [Eh]
	 Same-Spin Energy          =      -1.5282656006789193 [Eh]
	 Opposite-Spin Energy      =      -4.1430290415520075 [Eh]
	 Correlation Energy        =      -5.6712946422309267 [Eh]
	 Total Energy              =   -1770.8884616314492177 [Eh]

	 ================> DF-SCS-MP2 Energies <==================
	-----------------------------------------------------------
	 SCS Same-Spin Scale       =       0.3333333333333333 [-]
	 SCS Opposite-Spin Scale   =       1.2000000000000000 [-]
	 SCS Same-Spin Energy      =      -0.5094218668929731 [Eh]
	 SCS Opposite-Spin Energy  =      -4.9716348498624088 [Eh]
	 SCS Correlation Energy    =      -5.4810567167553819 [Eh]
	 SCS Total Energy          =   -1770.6982237059735326 [Eh]
	-----------------------------------------------------------

  -Total Gradient:
     Atom            X                  Y                   Z
    ------   -----------------  -----------------  -----------------
       1       -0.001195115302     0.002860322792    -0.000794000385
       2        0.000004917544     0.000013503592    -0.000006852014
       3       -0.001324300106     0.002711029008     0.002861422165
       4        0.002497283611     0.000342468789     0.005126263642
       5        0.000249522822    -0.000327203942     0.000885163060
       6        0.000009341588     0.000013565764     0.000006376038
       7       -0.000536590692    -0.000877830805     0.001787362120
       8       -0.000012806593    -0.000013799146     0.000025425577
       9       -0.000003744702     0.000003946268    -0.000007250894
      10       -0.000007151051    -0.000016003310    -0.000017227471
      11        0.001786582750    -0.001500672635    -0.002204522113
      12        0.000001503654    -0.000013939370     0.000007735880
      13        0.000016535557     0.000026794806    -0.000032063472
      14       -0.001328039314     0.001154393606     0.001024482628
      15        0.000009328270     0.000078025027    -0.000054278172
      16        0.000210824834    -0.000599338488    -0.000335723240
      17       -0.000001175907    -0.000017482129     0.000016312463
      18        0.000029968315    -0.000005620855     0.000037516944
      19       -0.000005865343     0.000349289903     0.000048775150
      20       -0.000008380927    -0.000017344609     0.000012745291
      21       -0.000004585420     0.000001854174    -0.000002803032
      22       -0.000047443830    -0.005031664149    -0.001084640094
      23        0.000183490122    -0.000021917691     0.000030132548
      24        0.000453456037     0.005733344807     0.000574974290
      25       -0.000297133408    -0.000528480132     0.000118971412
      26       -0.000362350470    -0.000593371614    -0.000570314481
      27        0.001026918461    -0.002859782808    -0.004702627023
      28       -0.001873294940     0.000839407082    -0.003064457647
      29       -0.000403670000    -0.001192623224     0.000175017283
      30        0.000022783286    -0.000043921120     0.000012664815
      31       -0.000013085713    -0.000049044237     0.000097173118
      32        0.000002336732    -0.000002667227    -0.000001280922
      33       -0.000025284178     0.000016247193     0.000006242708
      34        0.000010417391    -0.000012677247     0.000032528508
      35       -0.000013528124     0.000010864215    -0.000038699700
      36       -0.000007368419    -0.000001294311    -0.000001931853
      37        0.000027094554     0.000007887598     0.000004353961
      38        0.000025202157    -0.000004010366     0.000037717625
      39        0.000005092514    -0.000003353862    -0.000001478883
      40        0.000006660493     0.000081552578    -0.000076607154
      41       -0.000001972890    -0.000000701427     0.000000456903
      42        0.000001990367    -0.000005813408    -0.000002383921
      43        0.000766493288    -0.001147364060    -0.000440482097
      44       -0.000000186533     0.000002700262     0.000000950414
      45       -0.000003630754    -0.000000294708    -0.000001449845
      46       -0.000001745800    -0.000003319950     0.000001420131
      47        0.000001520699     0.000005637181    -0.000002969197
      48       -0.000000478698    -0.000000873549     0.000001890244
      49        0.000005607363     0.000004195871     0.000002221177
      50        0.000001699488    -0.000001278244     0.000000917903
      51        0.000003653343     0.000001449810     0.000003177931
      52        0.000001619389    -0.000002742127     0.000004410332
      53       -0.000009715751    -0.000002791959    -0.000004003041
      54       -0.000003371119    -0.000003734641    -0.000012768594
      55        0.000106858381     0.000638513487     0.000540228961
      56        0.000126469401     0.000025191729     0.000019390852
      57        0.000001417553     0.000000891498     0.000000809460
      58       -0.000005952930    -0.000000841565     0.000010525737
      59       -0.000001256559     0.000006461740    -0.000022320795
      60       -0.000000492584    -0.000002455223    -0.000001088302
      61        0.000000690187     0.000001187730     0.000001139604
      62       -0.000002817033     0.000001660578     0.000003525191
      63       -0.000084528371    -0.000026057721    -0.000030397188
      64       -0.000006848688    -0.000007491610    -0.000009845483
      65        0.000006273580     0.000002108139    -0.000006564404
      66        0.000001013705    -0.000008586369     0.000006736510
      67        0.000000342050     0.000001550199    -0.000003324798
      68        0.000000841414    -0.000002837796     0.000000092666
      69       -0.000001121424    -0.000002101299     0.000001698545
      70       -0.000002541897     0.000003335939     0.000003528228
      71       -0.000000020014    -0.000000015126    -0.000000037934
      72        0.000000687530     0.000000401552    -0.000000163754
      73        0.000000149957    -0.000000091115     0.000000152560
      74       -0.000008992905     0.000013652260     0.000001927330

    Molecular point group: c1

    Geometry (in Angstrom), charge = 1, multiplicity = 1:

    N           -0.435012429324    -0.780801156081    -2.023528592331
    N           -1.859059153986     2.922608837645    -0.435726405021
    N            3.927339865409    -1.277377160371     1.533334452596
    N            7.515494290303    -0.417106585173     2.214966428262
    C           -2.077192303057     0.724097625497    -1.044696811690
    C           -3.339556737374     1.180403910452    -0.471003765836
    C           -1.754312869682    -0.490881836898    -1.554699965906
    C           -1.143038985891     1.904658615708    -1.039633546770
    C           -3.156133387753     2.529480287437    -0.102039333233
    C           -4.552124961876     0.551430818441    -0.200865069648
    C           -2.763000785494    -1.561050364915    -1.694489545373
    C           -4.161508243522     3.273929274920     0.499554932795
    C           -5.570551885050     1.296209035382     0.402780154119
    C           -2.887073689430    -2.567659192791    -0.728624074249
    C           -3.662138482136    -1.515261470961    -2.767789264567
    C            0.626494128613    -0.827905604845    -1.121976651436
    C           -3.903946757414    -3.514929149191    -0.835419486359
    C           -4.671573996473    -2.470096657043    -2.874886836555
    C            0.437839590571    -0.992513472640     0.256469854175
    C            1.942466053247    -0.783418355869    -1.606638734841
    C           -4.799820801418    -3.464650862287    -1.904451731347
    C            1.529058132786    -1.124345898448     1.108723673803
    C            3.033894633305    -0.907490793896    -0.760640142678
    C            2.837594415396    -1.036352827543     0.621804578074
    C            5.158280638167    -0.767848107396     1.333351928054
    C            3.640875135392    -2.170305721782     2.665862968907
    C            6.267045931519    -1.129610294605     2.341726409572
    C            7.581537525816     0.985399351399     2.564961461452
    C            8.425320698131    -0.833739572902     1.153100973452
    C            7.350504972824     1.954027253349     1.387374384804
    C            8.868507867152     0.358858632823     0.300611081190
    C            7.802150269216     2.173662179100    -1.039667677858
    C           -5.379013269574     2.641452998782     0.749185399460
    C           -6.855214191372     0.593282859130     0.661213033909
    C           -9.039598776509     0.765824641135     1.495286981479
    O           -0.004922525755     1.998096857301    -1.492891273546
    O            5.419217372042    -0.022968363428     0.356169395852
    O           -7.773446871559     1.404734617344     1.233016585545
    O           -7.064269440433    -0.579534755936     0.390855024397
    N            7.686205778333     1.245839784249     0.111794593337
    H            7.908236369352     1.589418813268    -1.953697030655
    H           -4.741102822520    -0.485889930596    -0.455391804786
    H           -0.190845221687    -0.289928256985    -2.881895184116
    H           -1.491156449810     3.864363725684    -0.363782855692
    H           -4.009860523179     4.314877382664     0.773922407393
    H           -2.191703234051    -2.606630517173     0.106497837998
    H           -3.576883854429    -0.720369894742    -3.505936357516
    H           -4.005182292799    -4.286967341260    -0.077076585491
    H           -5.368678290464    -2.428500552733    -3.707664149637
    H           -0.563973939517    -1.020539759796     0.673419523586
    H            2.110764060109    -0.677518111685    -2.676277277693
    H           -5.597751369627    -4.198187761271    -1.979807589994
    H            1.337093147454    -1.224625167230     2.172475173350
    H            4.030314487791    -0.881427466691    -1.178191136598
    H            4.550423091658    -2.634470908863     3.036901809411
    H            6.484740300322    -2.202171972381     2.269825282098
    H            8.568334500836     1.185588374030     3.000119103664
    H            7.917432684130    -1.557123884117     0.506572730573
    H            7.985177893778     2.841869455053     1.467682687104
    H            9.223955735589     0.033432920953    -0.679976969140
    H            6.895878715061     2.777646906758    -1.090337107306
    H            2.971405460916    -2.955569534393     2.317206447845
    H            5.897520959421    -0.965262579153     3.360338429381
    H            6.851939008194     1.190323288626     3.352979005569
    H            9.321656359687    -1.325385209810     1.556501814718
    H            6.307351081586     2.260996778582     1.294652080946
    H            9.658157379565     0.949537979101     0.773667732855
    H            8.673693941781     2.814253196011    -0.899300704445
    H            3.164025341683    -1.627317913899     3.486079984048
    H           -6.189906357688     3.192748562374     1.213638615504
    H           -8.905496333707    -0.072828283912     2.179091346399
    H           -9.657446119590     1.539498202233     1.945244623879
    H           -9.481028157682     0.406319898660     0.565380840595
    H            6.836685972817     0.620511554705    -0.004094039179

*** Psi4 exiting successfully. Buy a developer a beer!
