                               Psi4 1.6 release

  ==> Input File <==

--------------------------------------------------------------------------
molecule {
1 1
N -0.435012429324 -0.780801156081 -2.023528592331
N -1.859059153986 2.922608837645 -0.435726405021
N 3.927339865409 -1.277377160371 1.533334452596
N 7.515494290303 -0.417106585173 2.214966428262
C -2.077192303057 0.724097625497 -1.04469681169
C -3.339556737374 1.180403910452 -0.471003765836
C -1.754312869682 -0.490881836898 -1.554699965906
C -1.143038985891 1.904658615708 -1.03963354677
C -3.156133387753 2.529480287437 -0.102039333233
C -4.552124961876 0.551430818441 -0.200865069648
C -2.763000785494 -1.561050364915 -1.694489545373
C -4.161508243522 3.27392927492 0.499554932795
C -5.57055188505 1.296209035382 0.402780154119
C -2.88707368943 -2.567659192791 -0.728624074249
C -3.662138482136 -1.515261470961 -2.767789264567
C 0.626494128613 -0.827905604845 -1.121976651436
C -3.903946757414 -3.514929149191 -0.835419486359
C -4.671573996473 -2.470096657043 -2.874886836555
C 0.437839590571 -0.99251347264 0.256469854175
C 1.942466053247 -0.783418355869 -1.606638734841
C -4.799820801418 -3.464650862287 -1.904451731347
C 1.529058132786 -1.124345898448 1.108723673803
C 3.033894633305 -0.907490793896 -0.760640142678
C 2.837594415396 -1.036352827543 0.621804578074
C 5.158280638167 -0.767848107396 1.333351928054
C 3.640875135392 -2.170305721782 2.665862968907
C 6.267045931519 -1.129610294605 2.341726409572
C 7.581537525816 0.985399351399 2.564961461452
C 8.425320698131 -0.833739572902 1.153100973452
C 7.350504972824 1.954027253349 1.387374384804
C 8.868507867152 0.358858632823 0.30061108119
C 7.802150269216 2.1736621791 -1.039667677858
C -5.379013269574 2.641452998782 0.74918539946
C -6.855214191372 0.59328285913 0.661213033909
C -9.039598776509 0.765824641135 1.495286981479
O -0.004922525755 1.998096857301 -1.492891273546
O 5.419217372042 -0.022968363428 0.356169395852
O -7.773446871559 1.404734617344 1.233016585545
O -7.064269440433 -0.579534755936 0.390855024397
N 7.686205778333 1.245839784249 0.111794593337
H 7.908236369352 1.589418813268 -1.953697030655
H -4.74110282252 -0.485889930596 -0.455391804786
H -0.190845221687 -0.289928256985 -2.881895184116
H -1.49115644981 3.864363725684 -0.363782855692
H -4.009860523179 4.314877382664 0.773922407393
H -2.191703234051 -2.606630517173 0.106497837998
H -3.576883854429 -0.720369894742 -3.505936357516
H -4.005182292799 -4.28696734126 -0.077076585491
H -5.368678290464 -2.428500552733 -3.707664149637
H -0.563973939517 -1.020539759796 0.673419523586
H 2.110764060109 -0.677518111685 -2.676277277693
H -5.597751369627 -4.198187761271 -1.979807589994
H 1.337093147454 -1.22462516723 2.17247517335
H 4.030314487791 -0.881427466691 -1.178191136598
H 4.550423091658 -2.634470908863 3.036901809411
H 6.484740300322 -2.202171972381 2.269825282098
H 8.568334500836 1.18558837403 3.000119103664
H 7.91743268413 -1.557123884117 0.506572730573
H 7.985177893778 2.841869455053 1.467682687104
H 9.223955735589 0.033432920953 -0.67997696914
H 6.895878715061 2.777646906758 -1.090337107306
H 2.971405460916 -2.955569534393 2.317206447845
H 5.897520959421 -0.965262579153 3.360338429381
H 6.851939008194 1.190323288626 3.352979005569
H 9.321656359687 -1.32538520981 1.556501814718
H 6.307351081586 2.260996778582 1.294652080946
H 9.658157379565 0.949537979101 0.773667732855
H 8.673693941781 2.814253196011 -0.899300704445
H 3.164025341683 -1.627317913899 3.486079984048
H -6.189906357688 3.192748562374 1.213638615504
H -8.905496333707 -0.072828283912 2.179091346399
H -9.65744611959 1.539498202233 1.945244623879
H -9.481028157682 0.40631989866 0.565380840595
H 6.836685972817 0.620511554705 -0.004094039179
no_reorient
}
memory 208GB
set_num_threads(51)
psi4_io.set_default_path("/scratch/liuchw/Psi4-farH_in17")
set freeze_core True
set PROPERTIES_ORIGIN ["COM"]
set cubeprop_tasks ['esp']
set basis 6-311G**
E, wfn = properties('mp2',properties=['dipole'],return_wfn=True)
cubeprop(wfn)
fchk(wfn, "farH_in17-dma.fchk")
clean()
--------------------------------------------------------------------------

    Molecular point group: c1
  Charge       = 1
  Multiplicity = 1
  Basis Set: 6-311G**
    Blend: 6-311G**
  Basis Set: (6-311G** AUX)
    Blend: CC-PVTZ-JKFIT

    Orbital Energies [Eh]
    ---------------------

    Doubly Occupied:

       1A    -20.645242     2A    -20.644360     3A    -20.593109
       4A    -20.581409     5A    -15.792584     6A    -15.716247
       7A    -15.680929     8A    -15.670293     9A    -15.638472
      10A    -11.481045    11A    -11.432061    12A    -11.429561
      13A    -11.418013    14A    -11.410512    15A    -11.409923
      16A    -11.400377    17A    -11.396339    18A    -11.395553
      19A    -11.372341    20A    -11.368942    21A    -11.362926
      22A    -11.355109    23A    -11.354248    24A    -11.327357
      25A    -11.322223    26A    -11.320439    27A    -11.315099
      28A    -11.314677    29A    -11.311554    30A    -11.307804
      31A    -11.306666    32A    -11.302569    33A    -11.301260
      34A    -11.300880    35A    -11.299399    36A    -11.298099
      37A    -11.296486    38A    -11.293774    39A    -11.292782
      40A    -11.291245    41A     -1.507302    42A     -1.500069
      43A     -1.455322    44A     -1.452393    45A     -1.396201
      46A     -1.372264    47A     -1.364867    48A     -1.349551
      49A     -1.328440    50A     -1.226715    51A     -1.214474
      52A     -1.208686    53A     -1.185396    54A     -1.164341
      55A     -1.155822    56A     -1.108790    57A     -1.099001
      58A     -1.096246    59A     -1.095308    60A     -1.074537
      61A     -1.074216    62A     -1.066887    63A     -1.052718
      64A     -1.036123    65A     -1.026382    66A     -1.013509
      67A     -0.975844    68A     -0.941238    69A     -0.923934
      70A     -0.919590    71A     -0.915302    72A     -0.895353
      73A     -0.886028    74A     -0.873145    75A     -0.869004
      76A     -0.850036    77A     -0.835882    78A     -0.827551
      79A     -0.825589    80A     -0.820086    81A     -0.806524
      82A     -0.794472    83A     -0.789473    84A     -0.779960
      85A     -0.775045    86A     -0.773060    87A     -0.759553
      88A     -0.753167    89A     -0.738406    90A     -0.736112
      91A     -0.733342    92A     -0.727971    93A     -0.720403
      94A     -0.712339    95A     -0.712213    96A     -0.707595
      97A     -0.706019    98A     -0.704066    99A     -0.702441
     100A     -0.699595   101A     -0.686651   102A     -0.681595
     103A     -0.678843   104A     -0.676704   105A     -0.673724
     106A     -0.670520   107A     -0.669278   108A     -0.666551
     109A     -0.663535   110A     -0.661544   111A     -0.655676
     112A     -0.647807   113A     -0.645021   114A     -0.639217
     115A     -0.636894   116A     -0.630597   117A     -0.623600
     118A     -0.616542   119A     -0.609080   120A     -0.602926
     121A     -0.599219   122A     -0.583264   123A     -0.578870
     124A     -0.570796   125A     -0.568465   126A     -0.562668
     127A     -0.555902   128A     -0.553907   129A     -0.546041
     130A     -0.540330   131A     -0.512532   132A     -0.503839
     133A     -0.501416   134A     -0.493688   135A     -0.481762
     136A     -0.479760   137A     -0.478511   138A     -0.415795
     139A     -0.398368   140A     -0.393765   141A     -0.388952
     142A     -0.364080   143A     -0.357194

  @DF-RHF Final Energy: -1765.61757904060960

   => Energetics <=

    Nuclear Repulsion Energy =           4340.6304344433920051
    One-Electron Energy =              -11020.4295746394363960
    Two-Electron Energy =                4914.1815611554347925
    Total Energy =                      -1765.6175790406095985
  Basis Set: (6-311G** AUX)
    Blend: CC-PVTZ-RI
    Molecular point group: c1

    Geometry (in Angstrom), charge = 1, multiplicity = 1:

       Center              X                  Y                   Z               Mass
    ------------   -----------------  -----------------  -----------------  -----------------
         N           -0.612042877996    -0.786718454603    -2.052504986289    14.003074004430
         N           -2.036089602658     2.916691539123    -0.464702798979    14.003074004430
         N            3.750309416737    -1.283294458893     1.504358058638    14.003074004430
         N            7.338463841631    -0.423023883695     2.185990034304    14.003074004430
         C           -2.254222751729     0.718180326975    -1.073673205648    12.000000000000
         C           -3.516587186046     1.174486611930    -0.499980159794    12.000000000000
         C           -1.931343318354    -0.496799135420    -1.583676359864    12.000000000000
         C           -1.320069434563     1.898741317186    -1.068609940728    12.000000000000
         C           -3.333163836425     2.523562988915    -0.131015727191    12.000000000000
         C           -4.729155410548     0.545513519919    -0.229841463606    12.000000000000
         C           -2.940031234166    -1.566967663437    -1.723465939331    12.000000000000
         C           -4.338538692194     3.268011976398     0.470578538837    12.000000000000
         C           -5.747582333722     1.290291736860     0.373803760161    12.000000000000
         C           -3.064104138102    -2.573576491313    -0.757600468207    12.000000000000
         C           -3.839168930808    -1.521178769483    -2.796765658525    12.000000000000
         C            0.449463679941    -0.833822903367    -1.150953045394    12.000000000000
         C           -4.080977206086    -3.520846447713    -0.864395880317    12.000000000000
         C           -4.848604445145    -2.476013955565    -2.903863230513    12.000000000000
         C            0.260809141899    -0.998430771162     0.227493460217    12.000000000000
         C            1.765435604575    -0.789335654391    -1.635615128799    12.000000000000
         C           -4.976851250090    -3.470568160809    -1.933428125305    12.000000000000
         C            1.352027684114    -1.130263196970     1.079747279845    12.000000000000
         C            2.856864184633    -0.913408092418    -0.789616536636    12.000000000000
         C            2.660563966724    -1.042270126065     0.592828184116    12.000000000000
         C            4.981250189495    -0.773765405918     1.304375534096    12.000000000000
         C            3.463844686720    -2.176223020304     2.636886574949    12.000000000000
         C            6.090015482847    -1.135527593127     2.312750015614    12.000000000000
         C            7.404507077144     0.979482052877     2.535985067494    12.000000000000
         C            8.248290249459    -0.839656871424     1.124124579494    12.000000000000
         C            7.173474524152     1.948109954827     1.358397990846    12.000000000000
         C            8.691477418480     0.352941334301     0.271634687232    12.000000000000
         C            7.625119820544     2.167744880578    -1.068644071816    12.000000000000
         C           -5.556043718246     2.635535700260     0.720209005502    12.000000000000
         C           -7.032244640044     0.587365560608     0.632236639951    12.000000000000
         C           -9.216629225181     0.759907342613     1.466310587521    12.000000000000
         O           -0.181952974427     1.992179558779    -1.521867667504    15.994914619570
         O            5.242186923370    -0.028885661950     0.327193001894    15.994914619570
         O           -7.950477320231     1.398817318822     1.204040191587    15.994914619570
         O           -7.241299889105    -0.585452054458     0.361878630439    15.994914619570
         N            7.509175329661     1.239922485727     0.082818199379    14.003074004430
         H            7.731205920680     1.583501514746    -1.982673424613     1.007825032230
         H           -4.918133271192    -0.491807229118    -0.484368198744     1.007825032230
         H           -0.367875670359    -0.295845555507    -2.910871578074     1.007825032230
         H           -1.668186898482     3.858446427162    -0.392759249650     1.007825032230
         H           -4.186890971851     4.308960084142     0.744946013435     1.007825032230
         H           -2.368733682723    -2.612547815695     0.077521444040     1.007825032230
         H           -3.753914303101    -0.726287193264    -3.534912751474     1.007825032230
         H           -4.182212741471    -4.292884639782    -0.106052979449     1.007825032230
         H           -5.545708739136    -2.434417851255    -3.736640543595     1.007825032230
         H           -0.741004388189    -1.026457058318     0.644443129628     1.007825032230
         H            1.933733611437    -0.683435410207    -2.705253671651     1.007825032230
         H           -5.774781818299    -4.204105059793    -2.008783983952     1.007825032230
         H            1.160062698782    -1.230542465752     2.143498779392     1.007825032230
         H            3.853284039119    -0.887344765213    -1.207167530556     1.007825032230
         H            4.373392642986    -2.640388207385     3.007925415453     1.007825032230
         H            6.307709851650    -2.208089270903     2.240848888140     1.007825032230
         H            8.391304052164     1.179671075508     2.971142709706     1.007825032230
         H            7.740402235458    -1.563041182639     0.477596336615     1.007825032230
         H            7.808147445106     2.835952156531     1.438706293146     1.007825032230
         H            9.046925286917     0.027515622431    -0.708953363098     1.007825032230
         H            6.718848266389     2.771729608236    -1.119313501264     1.007825032230
         H            2.794375012244    -2.961486832915     2.288230053887     1.007825032230
         H            5.720490510749    -0.971179877675     3.331362035423     1.007825032230
         H            6.674908559522     1.184405990104     3.324002611611     1.007825032230
         H            9.144625911015    -1.331302508332     1.527525420760     1.007825032230
         H            6.130320632914     2.255079480060     1.265675686988     1.007825032230
         H            9.481126930893     0.943620680579     0.744691338897     1.007825032230
         H            8.496663493109     2.808335897489    -0.928277098403     1.007825032230
         H            2.986994893011    -1.633235212421     3.457103590090     1.007825032230
         H           -6.366936806360     3.186831263852     1.184662221546     1.007825032230
         H           -9.082526782379    -0.078745582434     2.150114952441     1.007825032230
         H           -9.834476568262     1.533580903711     1.916268229921     1.007825032230
         H           -9.658058606354     0.400402600138     0.536404446637     1.007825032230
         H            6.659655524145     0.614594256183    -0.033070433137     1.007825032230

  Basis Set: 6-311G**
    Blend: 6-311G**
  Basis Set: (6-311G** AUX)
    Blend: CC-PVTZ-JKFIT
	 Reference Energy          =   -1765.6175790406095985 [Eh]
	 Singles Energy            =      -0.0000000000000000 [Eh]
	 Same-Spin Energy          =      -1.5933723112549565 [Eh]
	 Opposite-Spin Energy      =      -4.3858439187969873 [Eh]
	 Correlation Energy        =      -5.9792162300519438 [Eh]
	 Total Energy              =   -1771.5967952706614597 [Eh]

	 ================> DF-SCS-MP2 Energies <==================
	-----------------------------------------------------------
	 SCS Same-Spin Scale       =       0.3333333333333333 [-]
	 SCS Opposite-Spin Scale   =       1.2000000000000000 [-]
	 SCS Same-Spin Energy      =      -0.5311241037516521 [Eh]
	 SCS Opposite-Spin Energy  =      -5.2630127025563844 [Eh]
	 SCS Correlation Energy    =      -5.7941368063080363 [Eh]
	 SCS Total Energy          =   -1771.4117158469175592 [Eh]
	-----------------------------------------------------------

 Dipole X            :        -41.4849788           51.1890122            9.7040334
 Dipole Y            :          4.0354626           -2.5981391            1.4373235
 Dipole Z            :        -11.0630081           12.7604435            1.6974353
 Magnitude           :                                                    9.9556742
  Basis Set: 6-311G**
    Blend: 6-311G**
*** Psi4 exiting successfully. Buy a developer a beer!
