                               Psi4 1.6 release

  ==> Input File <==

--------------------------------------------------------------------------
molecule {
0 1
 N    1.838311   -0.490567    0.749371
 C    0.598610   -0.193445    0.298254
 C   -0.259762   -1.335349   -0.074316
 C   -1.645168   -1.231412   -0.214202
 C    0.235866    1.147298    0.310723
 C    0.318222   -2.562641   -0.425016
 H    2.439607    0.328002    0.888252
 C   -0.986406    1.869123    0.066449
 N    0.586372    3.379284    0.537485
 C    1.230723    2.179509    0.626601
 C   -0.738457    3.187017    0.206822
 C   -0.446884   -3.627111   -0.859665
 C   -2.412286   -2.297083   -0.645159
 C   -1.819852   -3.501954   -0.978892
 H    1.387589   -2.708753   -0.383028
 H   -2.147952   -0.333224    0.090062
 H    1.027735    4.266381    0.710808
 O    2.427633    2.066208    0.908481
 H    0.035988   -4.558456   -1.117689
 H   -3.483265   -2.181302   -0.725140
 H   -2.417695   -4.331381   -1.325378
 H   -1.937137    1.477808   -0.227572
 H   -1.404753    4.021580    0.103386
 H    2.297348   -1.332122    0.450204
}
memory 20GB
set_num_threads(5)
psi4_io.set_default_path("/scratch/liuchw/Psi4-7_11_Index_0-farH_in17")
set freeze_core True
E, wfn = energy('wb97x-d/6-311+G*',return_wfn=True)
oeprop(wfn,"WIBERG_LOWDIN_INDICES")
clean()
--------------------------------------------------------------------------

    Molecular point group: c1

    Geometry (in Angstrom), charge = 0, multiplicity = 1:

       Center              X                  Y                   Z               Mass
    ------------   -----------------  -----------------  -----------------  -----------------
         N            1.852054332788    -0.446036633915     0.691642450457    14.003074004430
         C            0.612353332788    -0.148914633915     0.240525450457    12.000000000000
         C           -0.246018667212    -1.290818633915    -0.132044549543    12.000000000000
         C           -1.631424667212    -1.186881633915    -0.271930549543    12.000000000000
         C            0.249609332788     1.191828366085     0.252994450457    12.000000000000
         C            0.331965332788    -2.518110633915    -0.482744549543    12.000000000000
         H            2.453350332788     0.372532366085     0.830523450457     1.007825032230
         C           -0.972662667212     1.913653366085     0.008720450457    12.000000000000
         N            0.600115332788     3.423814366085     0.479756450457    14.003074004430
         C            1.244466332788     2.224039366085     0.568872450457    12.000000000000
         C           -0.724713667212     3.231547366085     0.149093450457    12.000000000000
         C           -0.433140667212    -3.582580633915    -0.917393549543    12.000000000000
         C           -2.398542667212    -2.252552633915    -0.702887549543    12.000000000000
         C           -1.806108667212    -3.457423633915    -1.036620549543    12.000000000000
         H            1.401332332788    -2.664222633915    -0.440756549543     1.007825032230
         H           -2.134208667212    -0.288693633915     0.032333450457     1.007825032230
         H            1.041478332788     4.310911366085     0.653079450457     1.007825032230
         O            2.441376332788     2.110738366085     0.850752450457    15.994914619570
         H            0.049731332788    -4.513925633915    -1.175417549543     1.007825032230
         H           -3.469521667212    -2.136771633915    -0.782868549543     1.007825032230
         H           -2.403951667212    -4.286850633915    -1.383106549543     1.007825032230
         H           -1.923393667212     1.522338366085    -0.285300549543     1.007825032230
         H           -1.391009667212     4.066110366085     0.045657450457     1.007825032230
         H            2.311091332788    -1.287591633915     0.392475450457     1.007825032230

  Charge       = 0
  Multiplicity = 1
  Basis Set: 6-311+G*
    Blend: 6-311+G*
  Basis Set: (6-311+G* AUX)
    Blend: HEAVY-AUG-CC-PVTZ-JKFIT

    Orbital Energies [Eh]
    ---------------------

    Doubly Occupied:

       1A    -19.205861     2A    -14.462984     3A    -14.445919
       4A    -10.374846     5A    -10.363220     6A    -10.319928
       7A    -10.313355     8A    -10.309218     9A    -10.304120
      10A    -10.304023    11A    -10.303257    12A    -10.301933
      13A    -10.282604    14A    -10.275521    15A     -1.140376
      16A     -1.059798    17A     -1.046488    18A     -0.980994
      19A     -0.898701    20A     -0.876730    21A     -0.868087
      22A     -0.820504    23A     -0.768613    24A     -0.729032
      25A     -0.713946    26A     -0.690945    27A     -0.666230
      28A     -0.637193    29A     -0.604037    30A     -0.596332
      31A     -0.580235    32A     -0.563120    33A     -0.543976
      34A     -0.532445    35A     -0.530080    36A     -0.516241
      37A     -0.508485    38A     -0.499337    39A     -0.491117
      40A     -0.479355    41A     -0.453543    42A     -0.448485
      43A     -0.437240    44A     -0.413042    45A     -0.351665
      46A     -0.347793    47A     -0.338764    48A     -0.333565
      49A     -0.258999

  @DF-RKS Final Energy:  -609.84683976022939

   => Energetics <=

    Nuclear Repulsion Energy =            818.7299559494857704
    One-Electron Energy =               -2450.2448762238614108
    Two-Electron Energy =                1081.0186437592128641
    DFT Exchange-Correlation Energy =     -59.3367886275925827
    Empirical Dispersion Energy =          -0.0137746174739998
    VV10 Nonlocal Energy =                  0.0000000000000000
    Total Energy =                       -609.8468397602292725
 Dipole X            :          2.8885359           -3.8063003           -0.9177645
 Dipole Y            :          3.9545110           -4.5978853           -0.6433743
 Dipole Z            :          1.4226436           -1.9805442           -0.5579006
 Magnitude           :                                                    1.2519885
*** Psi4 exiting successfully. Buy a developer a beer!
