                               Psi4 1.6 release

  ==> Input File <==

--------------------------------------------------------------------------
molecule {
0 1
 N    1.993056   -0.452667    0.281397
 C    0.682361   -0.173835    0.087073
 C   -0.185237   -1.292028   -0.309242
 C   -1.477192   -1.103868   -0.803107
 C    0.259918    1.114980    0.362937
 C    0.232594   -2.605679   -0.066885
 H    2.574997    0.372596    0.445535
 C   -1.035077    1.739837    0.426971
 N    0.498476    3.345532    0.661366
 C    1.229209    2.195753    0.559581
 C   -0.852828    3.061937    0.617908
 C   -0.590880   -3.679833   -0.342466
 C   -2.298456   -2.180292   -1.080000
 C   -1.863556   -3.473934   -0.847526
 H    1.200195   -2.794619    0.373419
 H   -1.811965   -0.112199   -1.053840
 H    0.901331    4.252868    0.824263
 O    2.461061    2.149374    0.593646
 H   -0.241848   -4.683556   -0.148373
 H   -3.288245   -2.006666   -1.476244
 H   -2.509597   -4.313366   -1.056715
 H   -1.985597    1.247422    0.419831
 H   -1.578312    3.844880    0.726840
 H    2.409980   -1.215228   -0.225526
}
memory 20GB
set_num_threads(5)
psi4_io.set_default_path("/scratch/liuchw/Psi4-7_11_Index_0-farH_in17")
set freeze_core True
E, wfn = energy('wb97x-d/6-311+G*',return_wfn=True)
oeprop(wfn,"WIBERG_LOWDIN_INDICES")
clean()
--------------------------------------------------------------------------

    Molecular point group: c1

    Geometry (in Angstrom), charge = 0, multiplicity = 1:

       Center              X                  Y                   Z               Mass
    ------------   -----------------  -----------------  -----------------  -----------------
         N            1.997887791770    -0.413298451558     0.255709816185    14.003074004430
         C            0.687192791770    -0.134466451558     0.061385816185    12.000000000000
         C           -0.180405208230    -1.252659451558    -0.334929183815    12.000000000000
         C           -1.472360208230    -1.064499451558    -0.828794183815    12.000000000000
         C            0.264749791770     1.154348548442     0.337249816185    12.000000000000
         C            0.237425791770    -2.566310451558    -0.092572183815    12.000000000000
         H            2.579828791770     0.411964548442     0.419847816185     1.007825032230
         C           -1.030245208230     1.779205548442     0.401283816185    12.000000000000
         N            0.503307791770     3.384900548442     0.635678816185    14.003074004430
         C            1.234040791770     2.235121548442     0.533893816185    12.000000000000
         C           -0.847996208230     3.101305548442     0.592220816185    12.000000000000
         C           -0.586048208230    -3.640464451558    -0.368153183815    12.000000000000
         C           -2.293624208230    -2.140923451558    -1.105687183815    12.000000000000
         C           -1.858724208230    -3.434565451558    -0.873213183815    12.000000000000
         H            1.205026791770    -2.755250451558     0.347731816185     1.007825032230
         H           -1.807133208230    -0.072830451558    -1.079527183815     1.007825032230
         H            0.906162791770     4.292236548442     0.798575816185     1.007825032230
         O            2.465892791770     2.188742548442     0.567958816185    15.994914619570
         H           -0.237016208230    -4.644187451558    -0.174060183815     1.007825032230
         H           -3.283413208230    -1.967297451558    -1.501931183815     1.007825032230
         H           -2.504765208230    -4.273997451558    -1.082402183815     1.007825032230
         H           -1.980765208230     1.286790548442     0.394143816185     1.007825032230
         H           -1.573480208230     3.884248548442     0.701152816185     1.007825032230
         H            2.414811791770    -1.175859451558    -0.251213183815     1.007825032230

  Charge       = 0
  Multiplicity = 1
  Basis Set: 6-311+G*
    Blend: 6-311+G*
  Basis Set: (6-311+G* AUX)
    Blend: HEAVY-AUG-CC-PVTZ-JKFIT

    Orbital Energies [Eh]
    ---------------------

    Doubly Occupied:

       1A    -19.204857     2A    -14.462512     3A    -14.447605
       4A    -10.373952     5A    -10.360483     6A    -10.317048
       7A    -10.312911     8A    -10.305793     9A    -10.303772
      10A    -10.303359    11A    -10.302301    12A    -10.301641
      13A    -10.279964    14A    -10.274317    15A     -1.138948
      16A     -1.058751    17A     -1.046813    18A     -0.980123
      19A     -0.899290    20A     -0.875606    21A     -0.866946
      22A     -0.819328    23A     -0.767589    24A     -0.727944
      25A     -0.713205    26A     -0.688890    27A     -0.664778
      28A     -0.633749    29A     -0.604135    30A     -0.595429
      31A     -0.580370    32A     -0.560693    33A     -0.542239
      34A     -0.532525    35A     -0.528090    36A     -0.514747
      37A     -0.509881    38A     -0.497756    39A     -0.491484
      40A     -0.477894    41A     -0.454055    42A     -0.442980
      43A     -0.439487    44A     -0.412177    45A     -0.350212
      46A     -0.347855    47A     -0.337591    48A     -0.334949
      49A     -0.258649

  @DF-RKS Final Energy:  -609.85269597095180

   => Energetics <=

    Nuclear Repulsion Energy =            820.5265052352579005
    One-Electron Energy =               -2453.9411392085862644
    Two-Electron Energy =                1082.9142561561225193
    DFT Exchange-Correlation Energy =     -59.3383308150395692
    Empirical Dispersion Energy =          -0.0139873387064389
    VV10 Nonlocal Energy =                  0.0000000000000000
    Total Energy =                       -609.8526959709519133
 Dipole X            :          3.0261581           -4.0084822           -0.9823241
 Dipole Y            :          4.0163934           -4.6987572           -0.6823638
 Dipole Z            :          0.9565995           -1.3382682           -0.3816687
 Magnitude           :                                                    1.2554887
*** Psi4 exiting successfully. Buy a developer a beer!
