                               Psi4 1.6 release

  ==> Input File <==

--------------------------------------------------------------------------
molecule {
0 1
 N    2.051604   -0.326189   -0.449053
 C    0.745633   -0.112371   -0.174724
 C   -0.191112   -1.242168   -0.367119
 C   -1.076403   -1.245509   -1.438623
 C    0.333025    1.085218    0.341121
 C   -0.150725   -2.334303    0.491931
 H    2.624476    0.517161   -0.405428
 C   -0.951612    1.490768    0.849132
 N    0.437718    3.239730    0.982813
 C    1.215881    2.242872    0.461535
 C   -0.848247    2.779960    1.222695
 C   -1.005705   -3.403935    0.295670
 C   -1.927293   -2.319009   -1.633549
 C   -1.894131   -3.398443   -0.766790
 H    0.545450   -2.332920    1.317475
 H   -1.101057   -0.399348   -2.109811
 H    0.770273    4.165711    1.192705
 O    2.400776    2.348046    0.149539
 H   -0.976252   -4.245781    0.971573
 H   -2.615387   -2.314353   -2.466023
 H   -2.559099   -4.235428   -0.920102
 H   -1.818741    0.863727    0.910519
 H   -1.583600    3.433709    1.650994
 H    2.298914   -1.019732   -1.135639
}
memory 20GB
set_num_threads(5)
psi4_io.set_default_path("/scratch/liuchw/Psi4-7_11_Index_0-farH_in17")
set freeze_core True
E, wfn = energy('wb97x-d/6-311+G*',return_wfn=True)
oeprop(wfn,"WIBERG_LOWDIN_INDICES")
clean()
--------------------------------------------------------------------------

    Molecular point group: c1

    Geometry (in Angstrom), charge = 0, multiplicity = 1:

       Center              X                  Y                   Z               Mass
    ------------   -----------------  -----------------  -----------------  -----------------
         N            2.052675969616    -0.300723877972    -0.450342661328    14.003074004430
         C            0.746704969616    -0.086905877972    -0.176013661328    12.000000000000
         C           -0.190040030384    -1.216702877972    -0.368408661328    12.000000000000
         C           -1.075331030384    -1.220043877972    -1.439912661328    12.000000000000
         C            0.334096969616     1.110683122028     0.339831338672    12.000000000000
         C           -0.149653030384    -2.308837877972     0.490641338672    12.000000000000
         H            2.625547969616     0.542626122028    -0.406717661328     1.007825032230
         C           -0.950540030384     1.516233122028     0.847842338672    12.000000000000
         N            0.438789969616     3.265195122028     0.981523338672    14.003074004430
         C            1.216952969616     2.268337122028     0.460245338672    12.000000000000
         C           -0.847175030384     2.805425122028     1.221405338672    12.000000000000
         C           -1.004633030384    -3.378469877972     0.294380338672    12.000000000000
         C           -1.926221030384    -2.293543877972    -1.634838661328    12.000000000000
         C           -1.893059030384    -3.372977877972    -0.768079661328    12.000000000000
         H            0.546521969616    -2.307454877972     1.316185338672     1.007825032230
         H           -1.099985030384    -0.373882877972    -2.111100661328     1.007825032230
         H            0.771344969616     4.191176122028     1.191415338672     1.007825032230
         O            2.401847969616     2.373511122028     0.148249338672    15.994914619570
         H           -0.975180030384    -4.220315877972     0.970283338672     1.007825032230
         H           -2.614315030384    -2.288887877972    -2.467312661328     1.007825032230
         H           -2.558027030384    -4.209962877972    -0.921391661328     1.007825032230
         H           -1.817669030384     0.889192122028     0.909229338672     1.007825032230
         H           -1.582528030384     3.459174122028     1.649704338672     1.007825032230
         H            2.299985969616    -0.994266877972    -1.136928661328     1.007825032230

  Charge       = 0
  Multiplicity = 1
  Basis Set: 6-311+G*
    Blend: 6-311+G*
  Basis Set: (6-311+G* AUX)
    Blend: HEAVY-AUG-CC-PVTZ-JKFIT

    Orbital Energies [Eh]
    ---------------------

    Doubly Occupied:

       1A    -19.202971     2A    -14.460479     3A    -14.454380
       4A    -10.372421     5A    -10.356692     6A    -10.313196
       7A    -10.310843     8A    -10.302921     9A    -10.302522
      10A    -10.301011    11A    -10.300463    12A    -10.300123
      13A    -10.275076    14A    -10.271653    15A     -1.135956
      16A     -1.055964    17A     -1.048237    18A     -0.979741
      19A     -0.899861    20A     -0.872658    21A     -0.865981
      22A     -0.817076    23A     -0.765922    24A     -0.720162
      25A     -0.715734    26A     -0.684470    27A     -0.664929
      28A     -0.630913    29A     -0.609247    30A     -0.592511
      31A     -0.574963    32A     -0.562272    33A     -0.551204
      34A     -0.527163    35A     -0.523707    36A     -0.514904
      37A     -0.509904    38A     -0.496313    39A     -0.478437
      40A     -0.474810    41A     -0.451349    42A     -0.445371
      43A     -0.433949    44A     -0.410206    45A     -0.349731
      46A     -0.346914    47A     -0.336838    48A     -0.333328
      49A     -0.260135

  @DF-RKS Final Energy:  -609.85679184079561

   => Energetics <=

    Nuclear Repulsion Energy =            820.2256520722309006
    One-Electron Energy =               -2453.5104381587607350
    Two-Electron Energy =                1082.7753419014193241
    DFT Exchange-Correlation Energy =     -59.3332331817897725
    Empirical Dispersion Energy =          -0.0141144738950638
    VV10 Nonlocal Energy =                  0.0000000000000000
    Total Energy =                       -609.8567918407954949
 Dipole X            :          3.1454738           -4.1245956           -0.9791218
 Dipole Y            :          4.2125127           -4.9776086           -0.7650959
 Dipole Z            :          0.7250718           -0.9445188           -0.2194470
 Magnitude           :                                                    1.2618273
*** Psi4 exiting successfully. Buy a developer a beer!
