   * xtb version 6.5.0 (97a52f5) compiled by 'conda@d2599ee0d4f4' on 2022-05-15
          program call               : /home/liuchw/anaconda3/envs/xtbenv/bin/xtb --gfn 2 --chrg 0 --uhf 0 7_11_Index_0-opt-2-3-043_preQMOPTprefit_xyzformat.xyz --opt --input xtb-opt-2-3-043_constr.txt

   ID    Z sym.   atoms
    1    7 N      1, 9
    2    6 C      2-6, 8, 10-14
    3    1 H      7, 15-17, 19-24
    4    8 O      18
constraining angle 1 2 3 4 to   43.1033062°, actual value:   43.1033062°
constraining angle 24 1 2 3 to   28.0293321°, actual value:   28.0293321°
constraining angle 24 1 2 5 to  203.9873933°, actual value: -156.0126067°
constraining angle 7 1 2 3 to  173.0251067°, actual value:  173.0251067°
constraining angle 7 1 2 5 to  348.9831679°, actual value:  -11.0168321°
constraining angle 1 2 5 8 to  188.0242262°, actual value: -171.9757738°

          :  Hamiltonian                  GFN2-xTB          :
 * total energy  :   -38.5439502 Eh     change       -0.2924061E-08 Eh
 * total energy  :   -38.5521625 Eh     change       -0.8212320E-02 Eh
 * total energy  :   -38.5525577 Eh     change       -0.3951476E-03 Eh
 * total energy  :   -38.5524662 Eh     change        0.9148052E-04 Eh
 * total energy  :   -38.5532624 Eh     change       -0.7961721E-03 Eh
 * total energy  :   -38.5533087 Eh     change       -0.4629495E-04 Eh
 * total energy  :   -38.5533467 Eh     change       -0.3801814E-04 Eh
 * total energy  :   -38.5533679 Eh     change       -0.2119277E-04 Eh
 * total energy  :   -38.5533805 Eh     change       -0.1267175E-04 Eh
 * total energy  :   -38.5533953 Eh     change       -0.1473837E-04 Eh
 * total energy  :   -38.5534010 Eh     change       -0.5755774E-05 Eh
 * total energy  :   -38.5534061 Eh     change       -0.5088657E-05 Eh
 * total energy  :   -38.5534099 Eh     change       -0.3790268E-05 Eh
 * total energy  :   -38.5534121 Eh     change       -0.2215533E-05 Eh
   *** GEOMETRY OPTIMIZATION CONVERGED AFTER 14 ITERATIONS ***

 final structure:
================
24
 xtb: 6.5.0 (97a52f5)
N            0.98842343301244        0.51846811809789       -1.82857377856786
C            0.31006165807704        0.20884504996154       -0.69959859627946
C           -0.40904491815762       -1.07344726092489       -0.66848105027676
C            0.19933816274106       -2.22122797427551       -1.17210551259955
C            0.38325725073805        1.04466201005779        0.38741640023967
C           -1.69690090569906       -1.16058976109980       -0.14555468299983
H            1.37151831609792        1.46462245626686       -1.83294878862722
C           -0.09681521618016        0.89247034076121        1.73525854620161
N            0.82948967638890        2.92022533284261        1.55387313955586
C            1.00158762372340        2.36676069773252        0.31499619540999
C            0.19267546943353        2.02763261047559        2.40036580320942
C           -2.36080218804821       -2.37325506210466       -0.12809404577999
C           -0.46508712841661       -3.43318162325807       -1.14377607909152
C           -1.74648066101643       -3.51191713379214       -0.62352672745274
H           -2.17879007022464       -0.26888720879416        0.22597023072503
H            1.20258429398047       -2.15819249088294       -1.56760782750350
H            1.16854627602398        3.83022035055285        1.81679920669497
O            1.54321703046304        2.91913957788305       -0.64218608589580
H           -3.36246314326136       -2.43088443978030        0.27201527450879
H            0.01793847167419       -4.31952390528107       -1.52817331943525
H           -2.26597792390834       -4.45848715104094       -0.60573605368693
H           -0.57215105220472        0.01844364707452        2.13363314098249
H            0.00208105493906        2.29340851550865        3.42239888192986
H            0.66818349982330        0.14211133401981       -2.70552628126116

          :  Hamiltonian                  GFN2-xTB          :
         :: total energy             -38.553412124445 Eh    ::
         :: gradient norm              0.000585892044 Eh/a0 ::
         :: HOMO-LUMO gap              2.147178520032 eV    ::
         :: SCC energy               -39.184713312224 Eh    ::
         :: -> dispersion             -0.023864422678 Eh    ::
         :: repulsion energy           0.631240611196 Eh    ::

    * Orbital Energies and Occupations

         #    Occupation            Energy/Eh            Energy/eV
      -------------------------------------------------------------
         1        2.0000           -0.6782373             -18.4558
       ...           ...                  ...                  ...
        23        2.0000           -0.4833245             -13.1519
        24        2.0000           -0.4754931             -12.9388
        25        2.0000           -0.4725938             -12.8599
        26        2.0000           -0.4655796             -12.6691
        27        2.0000           -0.4536066             -12.3433
        28        2.0000           -0.4508675             -12.2687
        29        2.0000           -0.4355456             -11.8518
        30        2.0000           -0.4309579             -11.7270
        31        2.0000           -0.4143033             -11.2738
        32        2.0000           -0.4112307             -11.1902
        33        2.0000           -0.3968384             -10.7985
        34        2.0000           -0.3767948             -10.2531
        35        2.0000           -0.3460351              -9.4161 (HOMO)
        36                         -0.2671278              -7.2689 (LUMO)
        37                         -0.2321210              -6.3163
        38                         -0.2184791              -5.9451
        39                         -0.1650004              -4.4899
        40                         -0.1154929              -3.1427
        41                         -0.0896436              -2.4393
        42                          0.0330207               0.8985
        43                          0.0439158               1.1950
        44                          0.0934793               2.5437
        45                          0.1177123               3.2031
        46                          0.1354201               3.6850
       ...                                ...                  ...
        66                          0.7431261              20.2215
      -------------------------------------------------------------
                  HL-Gap            0.0789074 Eh            2.1472 eV

     #   Z          covCN         q      C6AA      α(0)
     1   7 N        2.646    -0.244    26.370     7.627
     2   6 C        2.885     0.093    25.943     8.350
     3   6 C        2.978     0.005    27.910     8.666
     4   6 C        2.925    -0.032    28.805     8.801
     5   6 C        3.090    -0.074    29.725     8.937
     6   6 C        2.923    -0.030    28.749     8.793
     7   1 H        0.860     0.227     0.979     1.550
     8   6 C        2.982    -0.071    29.752     8.947
     9   7 N        2.776    -0.148    24.194     7.305
    10   6 C        2.872     0.257    22.692     7.809
    11   6 C        2.989     0.001    27.998     8.680
    12   6 C        2.919    -0.028    28.699     8.785
    13   6 C        2.918    -0.028    28.708     8.786
    14   6 C        2.920    -0.028    28.705     8.786
    15   1 H        0.926     0.042     2.426     2.435
    16   1 H        0.926     0.040     2.455     2.450
    17   1 H        0.860     0.168     1.285     1.776
    18   8 O        0.857    -0.488    23.518     6.502
    19   1 H        0.926     0.035     2.512     2.479
    20   1 H        0.926     0.035     2.518     2.481
    21   1 H        0.926     0.035     2.523     2.484
    22   1 H        0.926     0.031     2.572     2.508
    23   1 H        0.926     0.033     2.550     2.497
    24   1 H        0.860     0.172     1.264     1.761

Wiberg/Mayer (AO) data.
largest (>0.10) Wiberg bond orders for each atom

     #   Z sym  total        # sym  WBO       # sym  WBO       # sym  WBO
 ---------------------------------------------------------------------------
     1   7 N    3.389 --     2 C    1.279    24 H    0.948     7 H    0.893
     2   6 C    3.969 --     5 C    1.448     1 N    1.279     3 C    1.040
     3   6 C    3.989 --     6 C    1.388     4 C    1.387     2 C    1.040
                            14 C    0.105
     4   6 C    3.982 --    13 C    1.451     3 C    1.387    16 H    0.969
                            12 C    0.109
     5   6 C    3.968 --     2 C    1.448     8 C    1.161    10 C    1.074
     6   6 C    3.991 --    12 C    1.451     3 C    1.388    15 H    0.968
                            13 C    0.109
     7   1 H    0.948 --     1 N    0.893
     8   6 C    3.980 --    11 C    1.693     5 C    1.161    22 H    0.971
     9   7 N    3.511 --    10 C    1.177    11 C    1.127    17 H    0.943
                            18 O    0.142
    10   6 C    3.949 --    18 O    1.568     9 N    1.177     5 C    1.074
    11   6 C    3.943 --     8 C    1.693     9 N    1.127    23 H    0.970
    12   6 C    3.992 --     6 C    1.451    14 C    1.434    19 H    0.970
                             4 C    0.109
    13   6 C    3.992 --     4 C    1.451    14 C    1.435    20 H    0.970
                             6 C    0.109
    14   6 C    3.985 --    13 C    1.435    12 C    1.434    21 H    0.971
                             3 C    0.105
    15   1 H    0.998 --     6 C    0.968
    16   1 H    0.998 --     4 C    0.969
    17   1 H    0.971 --     9 N    0.943
    18   8 O    1.968 --    10 C    1.568     9 N    0.142
    19   1 H    0.998 --    12 C    0.970
    20   1 H    0.998 --    13 C    0.970
    21   1 H    0.998 --    14 C    0.971
    22   1 H    0.999 --     8 C    0.971
    23   1 H    0.998 --    11 C    0.970
    24   1 H    0.969 --     1 N    0.948
 ---------------------------------------------------------------------------

molecular dipole:
                 x           y           z       tot (Debye)
 q only:       -0.599      -1.024      -0.046
   full:       -0.721      -0.858       0.104       2.862

           -------------------------------------------------
          | TOTAL ENERGY              -38.553412124445 Eh   |
          | GRADIENT NORM               0.000585892044 Eh/α |
          | HOMO-LUMO GAP               2.147178520032 eV   |
           -------------------------------------------------

 * finished run on 2023/11/18 at 08:42:54.465
