                               Psi4 1.6 release

  ==> Input File <==

--------------------------------------------------------------------------
molecule {
0 1
 N    2.069859   -0.418974   -0.068528
 C    0.743033   -0.157726   -0.024311
 C   -0.179295   -1.271397   -0.290022
 C   -1.298788   -1.097414   -1.100275
 C    0.309056    1.092565    0.342710
 C    0.085173   -2.532257    0.241253
 H    2.656728    0.412328    0.012260
 C   -1.010868    1.594956    0.618182
 N    0.430640    3.295301    0.802049
 C    1.222559    2.222739    0.496438
 C   -0.896469    2.908860    0.892824
 C   -0.769769   -3.589216   -0.009467
 C   -2.146106   -2.159797   -1.355190
 C   -1.887088   -3.405750   -0.807529
 H    0.951350   -2.669423    0.871998
 H   -1.488776   -0.130185   -1.540376
 H    0.779672    4.220930    0.985336
 O    2.445027    2.256943    0.358764
 H   -0.563892   -4.559615    0.418041
 H   -3.010426   -2.017020   -1.987114
 H   -2.552644   -4.232938   -1.005098
 H   -1.910841    1.013213    0.627634
 H   -1.652248    3.625511    1.151251
 H    2.398499   -1.164224   -0.659987
}
memory 20GB
set_num_threads(5)
psi4_io.set_default_path("/scratch/liuchw/Psi4-7_11_Index_0-farH_in17")
set freeze_core True
E, wfn = energy('wb97x-d/6-311+G*',return_wfn=True)
oeprop(wfn,"WIBERG_LOWDIN_INDICES")
clean()
--------------------------------------------------------------------------

    Molecular point group: c1

    Geometry (in Angstrom), charge = 0, multiplicity = 1:

       Center              X                  Y                   Z               Mass
    ------------   -----------------  -----------------  -----------------  -----------------
         N            2.071186516788    -0.387263406863    -0.084276327593    14.003074004430
         C            0.744360516788    -0.126015406863    -0.040059327593    12.000000000000
         C           -0.177967483212    -1.239686406863    -0.305770327593    12.000000000000
         C           -1.297460483212    -1.065703406863    -1.116023327593    12.000000000000
         C            0.310383516788     1.124275593137     0.326961672407    12.000000000000
         C            0.086500516788    -2.500546406863     0.225504672407    12.000000000000
         H            2.658055516788     0.444038593137    -0.003488327593     1.007825032230
         C           -1.009540483212     1.626666593137     0.602433672407    12.000000000000
         N            0.431967516788     3.327011593137     0.786300672407    14.003074004430
         C            1.223886516788     2.254449593137     0.480689672407    12.000000000000
         C           -0.895141483212     2.940570593137     0.877075672407    12.000000000000
         C           -0.768441483212    -3.557505406863    -0.025215327593    12.000000000000
         C           -2.144778483212    -2.128086406863    -1.370938327593    12.000000000000
         C           -1.885760483212    -3.374039406863    -0.823277327593    12.000000000000
         H            0.952677516788    -2.637712406863     0.856249672407     1.007825032230
         H           -1.487448483212    -0.098474406863    -1.556124327593     1.007825032230
         H            0.780999516788     4.252640593137     0.969587672407     1.007825032230
         O            2.446354516788     2.288653593137     0.343015672407    15.994914619570
         H           -0.562564483212    -4.527904406863     0.402292672407     1.007825032230
         H           -3.009098483212    -1.985309406863    -2.002862327593     1.007825032230
         H           -2.551316483212    -4.201227406863    -1.020846327593     1.007825032230
         H           -1.909513483212     1.044923593137     0.611885672407     1.007825032230
         H           -1.650920483212     3.657221593137     1.135502672407     1.007825032230
         H            2.399826516788    -1.132513406863    -0.675735327593     1.007825032230

  Charge       = 0
  Multiplicity = 1
  Basis Set: 6-311+G*
    Blend: 6-311+G*
  Basis Set: (6-311+G* AUX)
    Blend: HEAVY-AUG-CC-PVTZ-JKFIT

    Orbital Energies [Eh]
    ---------------------

    Doubly Occupied:

       1A    -19.203050     2A    -14.460897     3A    -14.452170
       4A    -10.372464     5A    -10.357321     6A    -10.314198
       7A    -10.311384     8A    -10.303794     9A    -10.303203
      10A    -10.302596    11A    -10.301604    12A    -10.301332
      13A    -10.276150    14A    -10.272496    15A     -1.136295
      16A     -1.056455    17A     -1.047977    18A     -0.980128
      19A     -0.900451    20A     -0.873781    21A     -0.866572
      22A     -0.817577    23A     -0.766627    24A     -0.724678
      25A     -0.713879    26A     -0.685343    27A     -0.664464
      28A     -0.631505    29A     -0.607066    30A     -0.593282
      31A     -0.578732    32A     -0.558577    33A     -0.549250
      34A     -0.529420    35A     -0.524504    36A     -0.513804
      37A     -0.511543    38A     -0.496488    39A     -0.483919
      40A     -0.476466    41A     -0.449388    42A     -0.446775
      43A     -0.438563    44A     -0.410628    45A     -0.349703
      46A     -0.347928    47A     -0.336492    48A     -0.334579
      49A     -0.258787

  @DF-RKS Final Energy:  -609.85910670729584

   => Energetics <=

    Nuclear Repulsion Energy =            821.5604931586493649
    One-Electron Energy =               -2456.1247809291339763
    Two-Electron Energy =                1084.0561938679575178
    DFT Exchange-Correlation Energy =     -59.3366725292308317
    Empirical Dispersion Energy =          -0.0143402755380382
    VV10 Nonlocal Energy =                  0.0000000000000000
    Total Energy =                       -609.8591067072958367
 Dipole X            :          3.1104018           -4.1009785           -0.9905766
 Dipole Y            :          4.0958465           -4.8576806           -0.7618341
 Dipole Z            :          0.8883927           -1.2036688           -0.3152761
 Magnitude           :                                                    1.2888104
*** Psi4 exiting successfully. Buy a developer a beer!
