   * xtb version 6.5.0 (97a52f5) compiled by 'conda@d2599ee0d4f4' on 2022-05-15
          program call               : /home/liuchw/anaconda3/envs/xtbenv/bin/xtb --gfn 2 --chrg 0 --uhf 0 7_11_Index_0-opt-2-3-283_preQMOPTprefit_xyzformat.xyz --opt --input xtb-opt-2-3-283_constr.txt

   ID    Z sym.   atoms
    1    7 N      1, 9
    2    6 C      2-6, 8, 10-14
    3    1 H      7, 15-17, 19-24
    4    8 O      18
constraining angle 1 2 3 4 to  282.9629317°, actual value:  -77.0370683°
constraining angle 24 1 2 3 to   27.9923881°, actual value:   27.9923881°
constraining angle 24 1 2 5 to  204.0027734°, actual value: -155.9972266°
constraining angle 7 1 2 3 to  173.0027199°, actual value:  173.0027199°
constraining angle 7 1 2 5 to  349.0131052°, actual value:  -10.9868948°
constraining angle 1 2 5 8 to  187.9961172°, actual value: -172.0038828°

          :  Hamiltonian                  GFN2-xTB          :
 * total energy  :   -38.5420999 Eh     change       -0.4004953E-08 Eh
 * total energy  :   -38.5497083 Eh     change       -0.7608419E-02 Eh
 * total energy  :   -38.5499337 Eh     change       -0.2253334E-03 Eh
 * total energy  :   -38.5500430 Eh     change       -0.1093245E-03 Eh
 * total energy  :   -38.5505528 Eh     change       -0.5097950E-03 Eh
 * total energy  :   -38.5505948 Eh     change       -0.4197443E-04 Eh
 * total energy  :   -38.5506372 Eh     change       -0.4240094E-04 Eh
 * total energy  :   -38.5506578 Eh     change       -0.2063225E-04 Eh
 * total energy  :   -38.5506704 Eh     change       -0.1258565E-04 Eh
 * total energy  :   -38.5506854 Eh     change       -0.1503792E-04 Eh
 * total energy  :   -38.5506928 Eh     change       -0.7333708E-05 Eh
 * total energy  :   -38.5507014 Eh     change       -0.8684757E-05 Eh
 * total energy  :   -38.5507077 Eh     change       -0.6210077E-05 Eh
 * total energy  :   -38.5507124 Eh     change       -0.4734954E-05 Eh
   *** GEOMETRY OPTIMIZATION CONVERGED AFTER 14 ITERATIONS ***

 final structure:
================
24
 xtb: 6.5.0 (97a52f5)
N            1.97155285198934       -0.17388815771559       -0.82529477598762
C            0.72090978351437       -0.06156648181702       -0.32695158704659
C           -0.18217908670327       -1.22573063006015       -0.46764396133722
C           -0.78571426743823       -1.49854637706836       -1.68989697161842
C            0.34679267860999        1.06428420748952        0.35499353745566
C           -0.45677810570277       -2.03693150983932        0.62731100696968
H            2.50563107621559        0.69570120381084       -0.79832201930037
C           -0.85011543447739        1.35798666083827        1.09908406014291
N            0.46929896901808        3.16409302601251        1.15698899977076
C            1.18853667513170        2.25608282575670        0.42961752037803
C           -0.73875961020814        2.61761551311023        1.56142829715139
C           -1.30579404876336       -3.12064981285467        0.49262540909273
C           -1.63953808480827       -2.57962688313880       -1.81898235731274
C           -1.89714038622775       -3.39435341017368       -0.72959997798643
H            0.00586945352110       -1.81639152884222        1.57753303275573
H           -0.58896179175554       -0.85775417279835       -2.53792537150418
H            0.79435296318192        4.08842541517681        1.38548237219387
O            2.29994435433318        2.45129772063964       -0.05982067225093
H           -1.50806465331164       -3.75314687523013        1.34438666868657
H           -2.10615695446037       -2.78470035700122       -2.77123460272793
H           -2.56088822501317       -4.23999996764999       -0.83228657349564
H           -1.67165294233546        0.68477614284346        1.24309730902815
H           -1.41860362944232        3.19404062817198        2.15902216104812
H            2.13184741513273       -0.79360419966072       -1.60277052410597

          :  Hamiltonian                  GFN2-xTB          :
         :: total energy             -38.550712386935 Eh    ::
         :: gradient norm              0.000742076532 Eh/a0 ::
         :: HOMO-LUMO gap              2.415559751603 eV    ::
         :: SCC energy               -39.183330283041 Eh    ::
         :: -> dispersion             -0.023797431823 Eh    ::
         :: repulsion energy           0.632513942892 Eh    ::

    * Orbital Energies and Occupations

         #    Occupation            Energy/Eh            Energy/eV
      -------------------------------------------------------------
         1        2.0000           -0.6779021             -18.4467
       ...           ...                  ...                  ...
        23        2.0000           -0.4837618             -13.1638
        24        2.0000           -0.4759986             -12.9526
        25        2.0000           -0.4736000             -12.8873
        26        2.0000           -0.4652870             -12.6611
        27        2.0000           -0.4525656             -12.3149
        28        2.0000           -0.4505598             -12.2604
        29        2.0000           -0.4354165             -11.8483
        30        2.0000           -0.4315240             -11.7424
        31        2.0000           -0.4149690             -11.2919
        32        2.0000           -0.4121673             -11.2156
        33        2.0000           -0.3971169             -10.8061
        34        2.0000           -0.3760733             -10.2335
        35        2.0000           -0.3462984              -9.4233 (HOMO)
        36                         -0.2575282              -7.0077 (LUMO)
        37                         -0.2330176              -6.3407
        38                         -0.2304868              -6.2719
        39                         -0.1645001              -4.4763
        40                         -0.1097315              -2.9859
        41                         -0.1014370              -2.7602
        42                          0.0316234               0.8605
        43                          0.0436934               1.1890
        44                          0.0867677               2.3611
        45                          0.1175032               3.1974
        46                          0.1341199               3.6496
       ...                                ...                  ...
        66                          0.7445703              20.2608
      -------------------------------------------------------------
                  HL-Gap            0.0887702 Eh            2.4156 eV

     #   Z          covCN         q      C6AA      α(0)
     1   7 N        2.645    -0.241    26.301     7.617
     2   6 C        2.885     0.094    25.913     8.345
     3   6 C        2.979     0.007    27.859     8.658
     4   6 C        2.924    -0.032    28.798     8.800
     5   6 C        3.093    -0.075    29.749     8.940
     6   6 C        2.924    -0.028    28.700     8.785
     7   1 H        0.860     0.226     0.981     1.551
     8   6 C        2.981    -0.070    29.735     8.945
     9   7 N        2.776    -0.148    24.200     7.306
    10   6 C        2.869     0.257    22.680     7.807
    11   6 C        2.989     0.001    27.987     8.678
    12   6 C        2.919    -0.027    28.680     8.782
    13   6 C        2.919    -0.028    28.705     8.786
    14   6 C        2.920    -0.029    28.720     8.788
    15   1 H        0.926     0.040     2.446     2.446
    16   1 H        0.926     0.031     2.566     2.505
    17   1 H        0.860     0.168     1.286     1.776
    18   8 O        0.857    -0.488    23.528     6.503
    19   1 H        0.926     0.037     2.495     2.470
    20   1 H        0.926     0.035     2.514     2.480
    21   1 H        0.926     0.035     2.518     2.481
    22   1 H        0.926     0.029     2.599     2.521
    23   1 H        0.926     0.033     2.549     2.497
    24   1 H        0.860     0.173     1.258     1.757

Wiberg/Mayer (AO) data.
largest (>0.10) Wiberg bond orders for each atom

     #   Z sym  total        # sym  WBO       # sym  WBO       # sym  WBO
 ---------------------------------------------------------------------------
     1   7 N    3.392 --     2 C    1.286    24 H    0.947     7 H    0.895
     2   6 C    3.969 --     5 C    1.469     1 N    1.286     3 C    1.006
     3   6 C    3.989 --     4 C    1.404     6 C    1.399     2 C    1.006
                            14 C    0.110
     4   6 C    3.992 --    13 C    1.443     3 C    1.404    16 H    0.970
                            12 C    0.111
     5   6 C    3.968 --     2 C    1.469     8 C    1.154    10 C    1.071
     6   6 C    3.989 --    12 C    1.446     3 C    1.399    15 H    0.970
                            13 C    0.112
     7   1 H    0.948 --     1 N    0.895
     8   6 C    3.980 --    11 C    1.700     5 C    1.154    22 H    0.972
     9   7 N    3.510 --    10 C    1.177    11 C    1.125    17 H    0.943
                            18 O    0.144
    10   6 C    3.950 --    18 O    1.572     9 N    1.177     5 C    1.071
    11   6 C    3.950 --     8 C    1.700     9 N    1.125    23 H    0.970
    12   6 C    3.991 --     6 C    1.446    14 C    1.437    19 H    0.970
                             4 C    0.111
    13   6 C    3.992 --     4 C    1.443    14 C    1.440    20 H    0.970
                             6 C    0.112
    14   6 C    3.990 --    13 C    1.440    12 C    1.437    21 H    0.971
                             3 C    0.110
    15   1 H    0.998 --     6 C    0.970
    16   1 H    0.999 --     4 C    0.970
    17   1 H    0.971 --     9 N    0.943
    18   8 O    1.969 --    10 C    1.572     9 N    0.144
    19   1 H    0.998 --    12 C    0.970
    20   1 H    0.998 --    13 C    0.970
    21   1 H    0.998 --    14 C    0.971
    22   1 H    0.999 --     8 C    0.972
    23   1 H    0.998 --    11 C    0.970
    24   1 H    0.969 --     1 N    0.947
 ---------------------------------------------------------------------------

molecular dipole:
                 x           y           z       tot (Debye)
 q only:       -0.666      -0.983      -0.159
   full:       -0.822      -0.758      -0.184       2.880

           -------------------------------------------------
          | TOTAL ENERGY              -38.550712386935 Eh   |
          | GRADIENT NORM               0.000742076532 Eh/α |
          | HOMO-LUMO GAP               2.415559751603 eV   |
           -------------------------------------------------

 * finished run on 2023/11/18 at 08:41:46.207
