                               Psi4 1.6 release

  ==> Input File <==

--------------------------------------------------------------------------
molecule {
0 1
 N    1.769367   -0.022686   -1.107125
 C    0.600103    0.008948   -0.430065
 C   -0.270301   -1.175033   -0.530874
 C   -0.537284   -1.747033   -1.773563
 C    0.313557    1.086628    0.374438
 C   -0.781293   -1.785965    0.612244
 H    2.278640    0.863015   -1.094527
 C   -0.752728    1.330120    1.310206
 N    0.585973    3.121164    1.310688
 C    1.170114    2.271136    0.413048
 C   -0.557820    2.551953    1.843331
 C   -1.563339   -2.921276    0.509588
 C   -1.327322   -2.877057   -1.873362
 C   -1.843752   -3.467170   -0.732157
 H   -0.535369   -1.383548    1.582291
 H   -0.158652   -1.282812   -2.673980
 H    0.954718    4.024841    1.554412
 O    2.199772    2.508155   -0.219085
 H   -1.950474   -3.387437    1.403728
 H   -1.537556   -3.300803   -2.844448
 H   -2.457008   -4.352484   -0.810191
 H   -1.575736    0.674754    1.511996
 H   -1.136174    3.081713    2.575702
 H    1.836955   -0.581709   -1.941454
}
memory 20GB
set_num_threads(5)
psi4_io.set_default_path("/scratch/liuchw/Psi4-7_11_Index_0-farH_in17")
set freeze_core True
E, wfn = energy('wb97x-d/6-311+G*',return_wfn=True)
oeprop(wfn,"WIBERG_LOWDIN_INDICES")
clean()
--------------------------------------------------------------------------

    Molecular point group: c1

    Geometry (in Angstrom), charge = 0, multiplicity = 1:

       Center              X                  Y                   Z               Mass
    ------------   -----------------  -----------------  -----------------  -----------------
         N            1.784133642135    -0.007210425089    -1.081748917348    14.003074004430
         C            0.614869642135     0.024423574911    -0.404688917348    12.000000000000
         C           -0.255534357865    -1.159557425089    -0.505497917348    12.000000000000
         C           -0.522517357865    -1.731557425089    -1.748186917348    12.000000000000
         C            0.328323642135     1.102103574911     0.399814082652    12.000000000000
         C           -0.766526357865    -1.770489425089     0.637620082652    12.000000000000
         H            2.293406642135     0.878490574911    -1.069150917348     1.007825032230
         C           -0.737961357865     1.345595574911     1.335582082652    12.000000000000
         N            0.600739642135     3.136639574911     1.336064082652    14.003074004430
         C            1.184880642135     2.286611574911     0.438424082652    12.000000000000
         C           -0.543053357865     2.567428574911     1.868707082652    12.000000000000
         C           -1.548572357865    -2.905800425089     0.534964082652    12.000000000000
         C           -1.312555357865    -2.861581425089    -1.847985917348    12.000000000000
         C           -1.828985357865    -3.451694425089    -0.706780917348    12.000000000000
         H           -0.520602357865    -1.368072425089     1.607667082652     1.007825032230
         H           -0.143885357865    -1.267336425089    -2.648603917348     1.007825032230
         H            0.969484642135     4.040316574911     1.579788082652     1.007825032230
         O            2.214538642135     2.523630574911    -0.193708917348    15.994914619570
         H           -1.935707357865    -3.371961425089     1.429104082652     1.007825032230
         H           -1.522789357865    -3.285327425089    -2.819071917348     1.007825032230
         H           -2.442241357865    -4.337008425089    -0.784814917348     1.007825032230
         H           -1.560969357865     0.690229574911     1.537372082652     1.007825032230
         H           -1.121407357865     3.097188574911     2.601078082652     1.007825032230
         H            1.851721642135    -0.566233425089    -1.916077917348     1.007825032230

  Charge       = 0
  Multiplicity = 1
  Basis Set: 6-311+G*
    Blend: 6-311+G*
  Basis Set: (6-311+G* AUX)
    Blend: HEAVY-AUG-CC-PVTZ-JKFIT

    Orbital Energies [Eh]
    ---------------------

    Doubly Occupied:

       1A    -19.203421     2A    -14.461212     3A    -14.452000
       4A    -10.372809     5A    -10.358551     6A    -10.316386
       7A    -10.311887     8A    -10.307179     9A    -10.303471
      10A    -10.303401    11A    -10.302636    12A    -10.301897
      13A    -10.277121    14A    -10.273028    15A     -1.136890
      16A     -1.057004    17A     -1.048515    18A     -0.981056
      19A     -0.900479    20A     -0.874820    21A     -0.867843
      22A     -0.818437    23A     -0.767333    24A     -0.726221
      25A     -0.714317    26A     -0.686602    27A     -0.665577
      28A     -0.633917    29A     -0.606618    30A     -0.594199
      31A     -0.578255    32A     -0.561202    33A     -0.552354
      34A     -0.530259    35A     -0.526171    36A     -0.513272
      37A     -0.511852    38A     -0.497634    39A     -0.483267
      40A     -0.476895    41A     -0.451844    42A     -0.450035
      43A     -0.436481    44A     -0.410934    45A     -0.350170
      46A     -0.348285    47A     -0.338171    48A     -0.333133
      49A     -0.259086

  @DF-RKS Final Energy:  -609.85532777018216

   => Energetics <=

    Nuclear Repulsion Energy =            820.9018103364458057
    One-Electron Energy =               -2454.7209385416454097
    Two-Electron Energy =                1083.3142069672080652
    DFT Exchange-Correlation Energy =     -59.3360988147671691
    Empirical Dispersion Energy =          -0.0143077174234001
    VV10 Nonlocal Energy =                  0.0000000000000000
    Total Energy =                       -609.8553277701821571
 Dipole X            :          2.8809460           -3.8708377           -0.9898917
 Dipole Y            :          4.3243992           -5.1434030           -0.8190038
 Dipole Z            :          0.4358478           -0.4541955           -0.0183476
 Magnitude           :                                                    1.2849084
*** Psi4 exiting successfully. Buy a developer a beer!
