                               Psi4 1.6 release

  ==> Input File <==

--------------------------------------------------------------------------
molecule {
0 1
 N    1.293413   -0.520025    1.719552
 C    0.479628   -0.212072    0.685255
 C   -0.312293   -1.307359    0.081296
 C   -1.400667   -1.836421    0.765179
 C    0.340140    1.085814    0.276727
 C    0.002958   -1.789427   -1.183598
 H    1.892466    0.251213    2.015712
 C   -0.562203    1.675530   -0.677534
 N    0.749324    3.294663    0.137876
 C    1.165451    2.172103    0.799535
 C   -0.288481    2.992660   -0.730436
 C   -0.748566   -2.805602   -1.746756
 C   -2.153148   -2.848110    0.195935
 C   -1.826283   -3.336553   -1.058083
 H    0.839786   -1.366449   -1.720118
 H   -1.650669   -1.450111    1.742126
 H    1.126769    4.214157    0.293776
 O    2.066853    2.126629    1.634922
 H   -0.494274   -3.181565   -2.726827
 H   -2.998169   -3.254895    0.731609
 H   -2.413086   -4.128274   -1.499803
 H   -1.309941    1.144875   -1.232742
 H   -0.745465    3.767849   -1.315087
 H    1.670839   -1.451221    1.782329
}
memory 20GB
set_num_threads(5)
psi4_io.set_default_path("/scratch/liuchw/Psi4-7_11_Index_0-farH_in17")
set freeze_core True
E, wfn = energy('wb97x-d/6-311+G*',return_wfn=True)
oeprop(wfn,"WIBERG_LOWDIN_INDICES")
clean()
--------------------------------------------------------------------------

    Molecular point group: c1

    Geometry (in Angstrom), charge = 0, multiplicity = 1:

       Center              X                  Y                   Z               Mass
    ------------   -----------------  -----------------  -----------------  -----------------
         N            1.326149132958    -0.481645475834     1.616873956128    14.003074004430
         C            0.512364132958    -0.173692475834     0.582576956128    12.000000000000
         C           -0.279556867042    -1.268979475834    -0.021382043872    12.000000000000
         C           -1.367930867042    -1.798041475834     0.662500956128    12.000000000000
         C            0.372876132958     1.124193524166     0.174048956128    12.000000000000
         C            0.035694132958    -1.751047475834    -1.286276043872    12.000000000000
         H            1.925202132958     0.289592524166     1.913033956128     1.007825032230
         C           -0.529466867042     1.713909524166    -0.780212043872    12.000000000000
         N            0.782060132958     3.333042524166     0.035197956128    14.003074004430
         C            1.198187132958     2.210482524166     0.696856956128    12.000000000000
         C           -0.255744867042     3.031039524166    -0.833114043872    12.000000000000
         C           -0.715829867042    -2.767222475834    -1.849434043872    12.000000000000
         C           -2.120411867042    -2.809730475834     0.093256956128    12.000000000000
         C           -1.793546867042    -3.298173475834    -1.160761043872    12.000000000000
         H            0.872522132958    -1.328069475834    -1.822796043872     1.007825032230
         H           -1.617932867042    -1.411731475834     1.639447956128     1.007825032230
         H            1.159505132958     4.252536524166     0.191097956128     1.007825032230
         O            2.099589132958     2.165008524166     1.532243956128    15.994914619570
         H           -0.461537867042    -3.143185475834    -2.829505043872     1.007825032230
         H           -2.965432867042    -3.216515475834     0.628930956128     1.007825032230
         H           -2.380349867042    -4.089894475834    -1.602481043872     1.007825032230
         H           -1.277204867042     1.183254524166    -1.335420043872     1.007825032230
         H           -0.712728867042     3.806228524166    -1.417765043872     1.007825032230
         H            1.703575132958    -1.412841475834     1.679650956128     1.007825032230

  Charge       = 0
  Multiplicity = 1
  Basis Set: 6-311+G*
    Blend: 6-311+G*
  Basis Set: (6-311+G* AUX)
    Blend: HEAVY-AUG-CC-PVTZ-JKFIT

    Orbital Energies [Eh]
    ---------------------

    Doubly Occupied:

       1A    -19.203026     2A    -14.460471     3A    -14.454276
       4A    -10.372432     5A    -10.356781     6A    -10.313080
       7A    -10.310859     8A    -10.302835     9A    -10.302504
      10A    -10.300932    11A    -10.300381    12A    -10.300036
      13A    -10.275140    14A    -10.271656    15A     -1.136050
      16A     -1.055982    17A     -1.048051    18A     -0.979737
      19A     -0.899909    20A     -0.872526    21A     -0.865897
      22A     -0.817036    23A     -0.765790    24A     -0.720038
      25A     -0.715671    26A     -0.684455    27A     -0.665099
      28A     -0.630811    29A     -0.609244    30A     -0.592529
      31A     -0.574653    32A     -0.562258    33A     -0.551182
      34A     -0.527148    35A     -0.523661    36A     -0.514884
      37A     -0.509901    38A     -0.496319    39A     -0.478443
      40A     -0.474666    41A     -0.451435    42A     -0.445321
      43A     -0.433800    44A     -0.410246    45A     -0.349789
      46A     -0.346867    47A     -0.336753    48A     -0.333229
      49A     -0.260139

  @DF-RKS Final Energy:  -609.85679089285816

   => Energetics <=

    Nuclear Repulsion Energy =            820.7245749734593119
    One-Electron Energy =               -2454.5116732786118519
    Two-Electron Energy =                1083.2775621823655001
    DFT Exchange-Correlation Energy =     -59.3331106629153879
    Empirical Dispersion Energy =          -0.0141441071556668
    VV10 Nonlocal Energy =                  0.0000000000000000
    Total Energy =                       -609.8567908928580437
 Dipole X            :          2.8504076           -3.5156540           -0.6652464
 Dipole Y            :          3.9855236           -4.7514360           -0.7659124
 Dipole Z            :          2.0177301           -2.7684134           -0.7506834
 Magnitude           :                                                    1.2620222
*** Psi4 exiting successfully. Buy a developer a beer!
