                               Psi4 1.6 release

  ==> Input File <==

--------------------------------------------------------------------------
molecule {
0 1
 N    1.553027   -0.574883    1.409099
 C    0.568068   -0.219453    0.555524
 C   -0.275633   -1.297114   -0.007484
 C   -1.556800   -1.515402    0.485709
 C    0.318661    1.100822    0.296871
 C    0.225094   -2.128170   -1.003208
 H    2.167534    0.196120    1.673110
 C   -0.749713    1.726094   -0.438178
 N    0.636742    3.328946    0.279417
 C    1.190886    2.175851    0.763543
 C   -0.525098    3.053502   -0.425089
 C   -0.555162   -3.149382   -1.515703
 C   -2.331585   -2.541317   -0.024904
 C   -1.833570   -3.358063   -1.026628
 H    1.221729   -1.961372   -1.387302
 H   -1.939125   -0.874572    1.266052
 H    1.012251    4.248194    0.441314
 O    2.222404    2.101988    1.429215
 H   -0.163046   -3.785026   -2.295988
 H   -3.326566   -2.705866    0.361678
 H   -2.440720   -4.157278   -1.425133
 H   -1.564570    1.210516   -0.906308
 H   -1.096488    3.852577   -0.857054
 H    1.966064   -1.489303    1.322290
}
memory 20GB
set_num_threads(5)
psi4_io.set_default_path("/scratch/liuchw/Psi4-7_11_Index_0-farH_in17")
set freeze_core True
E, wfn = energy('wb97x-d/6-311+G*',return_wfn=True)
oeprop(wfn,"WIBERG_LOWDIN_INDICES")
clean()
--------------------------------------------------------------------------

    Molecular point group: c1

    Geometry (in Angstrom), charge = 0, multiplicity = 1:

       Center              X                  Y                   Z               Mass
    ------------   -----------------  -----------------  -----------------  -----------------
         N            1.576044478184    -0.536437570480     1.319843839721    14.003074004430
         C            0.591085478184    -0.181007570480     0.466268839721    12.000000000000
         C           -0.252615521816    -1.258668570480    -0.096739160279    12.000000000000
         C           -1.533782521816    -1.476956570480     0.396453839721    12.000000000000
         C            0.341678478184     1.139267429520     0.207615839721    12.000000000000
         C            0.248111478184    -2.089724570480    -1.092463160279    12.000000000000
         H            2.190551478184     0.234565429520     1.583854839721     1.007825032230
         C           -0.726695521816     1.764539429520    -0.527433160279    12.000000000000
         N            0.659759478184     3.367391429520     0.190161839721    14.003074004430
         C            1.213903478184     2.214296429520     0.674287839721    12.000000000000
         C           -0.502080521816     3.091947429520    -0.514344160279    12.000000000000
         C           -0.532144521816    -3.110936570480    -1.604958160279    12.000000000000
         C           -2.308567521816    -2.502871570480    -0.114159160279    12.000000000000
         C           -1.810552521816    -3.319617570480    -1.115883160279    12.000000000000
         H            1.244746478184    -1.922926570480    -1.476557160279     1.007825032230
         H           -1.916107521816    -0.836126570480     1.176796839721     1.007825032230
         H            1.035268478184     4.286639429520     0.352058839721     1.007825032230
         O            2.245421478184     2.140433429520     1.339959839721    15.994914619570
         H           -0.140028521816    -3.746580570480    -2.385243160279     1.007825032230
         H           -3.303548521816    -2.667420570480     0.272422839721     1.007825032230
         H           -2.417702521816    -4.118832570480    -1.514388160279     1.007825032230
         H           -1.541552521816     1.248961429520    -0.995563160279     1.007825032230
         H           -1.073470521816     3.891022429520    -0.946309160279     1.007825032230
         H            1.989081478184    -1.450857570480     1.233034839721     1.007825032230

  Charge       = 0
  Multiplicity = 1
  Basis Set: 6-311+G*
    Blend: 6-311+G*
  Basis Set: (6-311+G* AUX)
    Blend: HEAVY-AUG-CC-PVTZ-JKFIT

    Orbital Energies [Eh]
    ---------------------

    Doubly Occupied:

       1A    -19.203002     2A    -14.460613     3A    -14.454610
       4A    -10.372521     5A    -10.357071     6A    -10.314114
       7A    -10.311055     8A    -10.304423     9A    -10.302473
      10A    -10.301601    11A    -10.301045    12A    -10.300493
      13A    -10.275338    14A    -10.271863    15A     -1.136053
      16A     -1.056100    17A     -1.048675    18A     -0.980225
      19A     -0.900157    20A     -0.873068    21A     -0.866634
      22A     -0.817367    23A     -0.766242    24A     -0.721617
      25A     -0.715326    26A     -0.684789    27A     -0.665450
      28A     -0.631804    29A     -0.609149    30A     -0.592843
      31A     -0.574707    32A     -0.563611    33A     -0.552455
      34A     -0.527680    35A     -0.524273    36A     -0.514780
      37A     -0.510276    38A     -0.496648    39A     -0.479233
      40A     -0.474294    41A     -0.452736    42A     -0.446309
      43A     -0.433578    44A     -0.410281    45A     -0.350283
      46A     -0.346400    47A     -0.337909    48A     -0.332923
      49A     -0.260093

  @DF-RKS Final Energy:  -609.85594171913840

   => Energetics <=

    Nuclear Repulsion Energy =            820.4208855099089988
    One-Electron Energy =               -2453.8617859716050589
    Two-Electron Energy =                1082.9323744060720855
    DFT Exchange-Correlation Energy =     -59.3331921695960105
    Empirical Dispersion Energy =          -0.0142234939184834
    VV10 Nonlocal Energy =                  0.0000000000000000
    Total Energy =                       -609.8559417191384000
 Dipole X            :          2.9309771           -3.6825492           -0.7515721
 Dipole Y            :          4.0206580           -4.7617412           -0.7410832
 Dipole Z            :          1.8335486           -2.5290143           -0.6954657
 Magnitude           :                                                    1.2640164
*** Psi4 exiting successfully. Buy a developer a beer!
