                               Psi4 1.6 release

  ==> Input File <==

--------------------------------------------------------------------------
molecule {
0 1
 N    1.971553   -0.173888   -0.825295
 C    0.720910   -0.061566   -0.326952
 C   -0.182179   -1.225731   -0.467644
 C   -0.785714   -1.498546   -1.689897
 C    0.346793    1.064284    0.354994
 C   -0.456778   -2.036932    0.627311
 H    2.505631    0.695701   -0.798322
 C   -0.850115    1.357987    1.099084
 N    0.469299    3.164093    1.156989
 C    1.188537    2.256083    0.429618
 C   -0.738760    2.617616    1.561428
 C   -1.305794   -3.120650    0.492625
 C   -1.639538   -2.579627   -1.818982
 C   -1.897140   -3.394353   -0.729600
 H    0.005869   -1.816392    1.577533
 H   -0.588962   -0.857754   -2.537925
 H    0.794353    4.088425    1.385482
 O    2.299944    2.451298   -0.059821
 H   -1.508065   -3.753147    1.344387
 H   -2.106157   -2.784700   -2.771235
 H   -2.560888   -4.240000   -0.832287
 H   -1.671653    0.684776    1.243097
 H   -1.418604    3.194041    2.159022
 H    2.131847   -0.793604   -1.602771
}
memory 20GB
set_num_threads(5)
psi4_io.set_default_path("/scratch/liuchw/Psi4-7_11_Index_0-farH_in17")
set freeze_core True
E, wfn = energy('wb97x-d/6-311+G*',return_wfn=True)
oeprop(wfn,"WIBERG_LOWDIN_INDICES")
clean()
--------------------------------------------------------------------------

    Molecular point group: c1

    Geometry (in Angstrom), charge = 0, multiplicity = 1:

       Center              X                  Y                   Z               Mass
    ------------   -----------------  -----------------  -----------------  -----------------
         N            1.975216417248    -0.152374623454    -0.810420624578    14.003074004430
         C            0.724573417248    -0.040052623454    -0.312077624578    12.000000000000
         C           -0.178515582752    -1.204217623454    -0.452769624578    12.000000000000
         C           -0.782050582752    -1.477032623454    -1.675022624578    12.000000000000
         C            0.350456417248     1.085797376546     0.369868375422    12.000000000000
         C           -0.453114582752    -2.015418623454     0.642185375422    12.000000000000
         H            2.509294417248     0.717214376546    -0.783447624578     1.007825032230
         C           -0.846451582752     1.379500376546     1.113958375422    12.000000000000
         N            0.472962417248     3.185606376546     1.171863375422    14.003074004430
         C            1.192200417248     2.277596376546     0.444492375422    12.000000000000
         C           -0.735096582752     2.639129376546     1.576302375422    12.000000000000
         C           -1.302130582752    -3.099136623454     0.507499375422    12.000000000000
         C           -1.635874582752    -2.558113623454    -1.804107624578    12.000000000000
         C           -1.893476582752    -3.372839623454    -0.714725624578    12.000000000000
         H            0.009532417248    -1.794878623454     1.592407375422     1.007825032230
         H           -0.585298582752    -0.836240623454    -2.523050624578     1.007825032230
         H            0.798016417248     4.109938376546     1.400356375422     1.007825032230
         O            2.303607417248     2.472811376546    -0.044946624578    15.994914619570
         H           -1.504401582752    -3.731633623454     1.359261375422     1.007825032230
         H           -2.102493582752    -2.763186623454    -2.756360624578     1.007825032230
         H           -2.557224582752    -4.218486623454    -0.817412624578     1.007825032230
         H           -1.667989582752     0.706289376546     1.257971375422     1.007825032230
         H           -1.414940582752     3.215554376546     2.173896375422     1.007825032230
         H            2.135510417248    -0.772090623454    -1.587896624578     1.007825032230

  Charge       = 0
  Multiplicity = 1
  Basis Set: 6-311+G*
    Blend: 6-311+G*
  Basis Set: (6-311+G* AUX)
    Blend: HEAVY-AUG-CC-PVTZ-JKFIT

    Orbital Energies [Eh]
    ---------------------

    Doubly Occupied:

       1A    -19.203077     2A    -14.460646     3A    -14.454412
       4A    -10.372535     5A    -10.357129     6A    -10.313988
       7A    -10.311082     8A    -10.304374     9A    -10.302352
      10A    -10.301478    11A    -10.300945    12A    -10.300400
      13A    -10.275414    14A    -10.271888    15A     -1.136174
      16A     -1.056169    17A     -1.048497    18A     -0.980206
      19A     -0.900143    20A     -0.872997    21A     -0.866539
      22A     -0.817356    23A     -0.766115    24A     -0.721480
      25A     -0.715330    26A     -0.684826    27A     -0.665589
      28A     -0.631669    29A     -0.609122    30A     -0.592875
      31A     -0.574395    32A     -0.563566    33A     -0.552425
      34A     -0.527658    35A     -0.524257    36A     -0.514785
      37A     -0.510315    38A     -0.496686    39A     -0.479203
      40A     -0.474198    41A     -0.452729    42A     -0.446274
      43A     -0.433463    44A     -0.410333    45A     -0.350263
      46A     -0.346338    47A     -0.337910    48A     -0.332869
      49A     -0.260123

  @DF-RKS Final Energy:  -609.85595790361913

   => Energetics <=

    Nuclear Repulsion Energy =            820.7751433206735783
    One-Electron Energy =               -2454.5733247356884021
    Two-Electron Energy =                1083.2898760460773246
    DFT Exchange-Correlation Energy =     -59.3334148007890150
    Empirical Dispersion Energy =          -0.0142377338926698
    VV10 Nonlocal Energy =                  0.0000000000000000
    Total Energy =                       -609.8559579036191280
 Dipole X            :          3.1155564           -4.1021534           -0.9865970
 Dipole Y            :          4.2467820           -5.0288146           -0.7820326
 Dipole Z            :          0.5326103           -0.6427529           -0.1101426
 Magnitude           :                                                    1.2637564
*** Psi4 exiting successfully. Buy a developer a beer!
