   * xtb version 6.5.0 (97a52f5) compiled by 'conda@d2599ee0d4f4' on 2022-05-15
          program call               : /home/liuchw/anaconda3/envs/xtbenv/bin/xtb --gfn 2 --chrg 0 --uhf 0 7_11_Index_0-opt-2-3-103_preQMOPTprefit_xyzformat.xyz --opt --input xtb-opt-2-3-103_constr.txt

   ID    Z sym.   atoms
    1    7 N      1, 9
    2    6 C      2-6, 8, 10-14
    3    1 H      7, 15-17, 19-24
    4    8 O      18
constraining angle 1 2 3 4 to  102.9589834°, actual value:  102.9589834°
constraining angle 24 1 2 3 to   27.9906077°, actual value:   27.9906077°
constraining angle 24 1 2 5 to  204.0046101°, actual value: -155.9953899°
constraining angle 7 1 2 3 to  172.9999053°, actual value:  172.9999053°
constraining angle 7 1 2 5 to  349.0139077°, actual value:  -10.9860923°
constraining angle 1 2 5 8 to  187.9968620°, actual value: -172.0031380°

          :  Hamiltonian                  GFN2-xTB          :
 * total energy  :   -38.5419748 Eh     change       -0.2189502E-08 Eh
 * total energy  :   -38.5496814 Eh     change       -0.7706570E-02 Eh
 * total energy  :   -38.5500802 Eh     change       -0.3987944E-03 Eh
 * total energy  :   -38.5500315 Eh     change        0.4865145E-04 Eh
 * total energy  :   -38.5506444 Eh     change       -0.6128948E-03 Eh
 * total energy  :   -38.5506816 Eh     change       -0.3718551E-04 Eh
 * total energy  :   -38.5507104 Eh     change       -0.2878949E-04 Eh
 * total energy  :   -38.5507138 Eh     change       -0.3406996E-05 Eh
 * total energy  :   -38.5507170 Eh     change       -0.3190411E-05 Eh
 * total energy  :   -38.5507183 Eh     change       -0.1290030E-05 Eh
 * total energy  :   -38.5507193 Eh     change       -0.1047095E-05 Eh
   *** GEOMETRY OPTIMIZATION CONVERGED AFTER 11 ITERATIONS ***

 final structure:
================
24
 xtb: 6.5.0 (97a52f5)
N            1.55302679340985       -0.57488250434811        1.40909904266040
C            0.56806787697699       -0.21945319123732        0.55552431908738
C           -0.27563330720656       -1.29711406467832       -0.00748376874879
C           -1.55679997633561       -1.51540243939564        0.48570933873197
C            0.31866086405801        1.10082183292664        0.29687118160299
C            0.22509442625312       -2.12816990520060       -1.00320848278964
H            2.16753379891968        0.19611964722768        1.67311024533748
C           -0.74971288531495        1.72609443135800       -0.43817771369036
N            0.63674199511291        3.32894627699572        0.27941685755305
C            1.19088621887089        2.17585081159715        0.76354306932237
C           -0.52509801067260        3.05350248753121       -0.42508875365157
C           -0.55516209488728       -3.14938228618622       -1.51570252231445
C           -2.33158510035272       -2.54131737546889       -0.02490368319192
C           -1.83356996069510       -3.35806322938014       -1.02662806530542
H            1.22172871385992       -1.96137164785933       -1.38730211997140
H           -1.93912497728923       -0.87457215605571        1.26605159525568
H            1.01225145887166        4.24819435776992        0.44131442299853
O            2.22240394879673        2.10198799388115        1.42921544879811
H           -0.16304617371831       -3.78502563991642       -2.29598835704968
H           -3.32656618395800       -2.70586591766555        0.36167776431469
H           -2.44072029420725       -4.15727830348079       -1.42513258872570
H           -1.56456978129799        1.21051600451174       -0.90630798083216
H           -1.09648847916786        3.85257689832516       -0.85705393433457
H            1.96606410997382       -1.48930308125145        1.32228969494300

          :  Hamiltonian                  GFN2-xTB          :
         :: total energy             -38.550719324743 Eh    ::
         :: gradient norm              0.000577055843 Eh/a0 ::
         :: HOMO-LUMO gap              2.412734824855 eV    ::
         :: SCC energy               -39.183351742382 Eh    ::
         :: -> dispersion             -0.023776177740 Eh    ::
         :: repulsion energy           0.632532447690 Eh    ::

    * Orbital Energies and Occupations

         #    Occupation            Energy/Eh            Energy/eV
      -------------------------------------------------------------
         1        2.0000           -0.6777999             -18.4439
       ...           ...                  ...                  ...
        23        2.0000           -0.4842156             -13.1762
        24        2.0000           -0.4758489             -12.9485
        25        2.0000           -0.4736125             -12.8877
        26        2.0000           -0.4652728             -12.6607
        27        2.0000           -0.4524981             -12.3131
        28        2.0000           -0.4504858             -12.2583
        29        2.0000           -0.4354977             -11.8505
        30        2.0000           -0.4316220             -11.7450
        31        2.0000           -0.4150773             -11.2948
        32        2.0000           -0.4123186             -11.2198
        33        2.0000           -0.3970883             -10.8053
        34        2.0000           -0.3760319             -10.2324
        35        2.0000           -0.3462608              -9.4222 (HOMO)
        36                         -0.2575945              -7.0095 (LUMO)
        37                         -0.2331445              -6.3442
        38                         -0.2304615              -6.2712
        39                         -0.1644497              -4.4749
        40                         -0.1097631              -2.9868
        41                         -0.1014180              -2.7597
        42                          0.0317046               0.8627
        43                          0.0435404               1.1848
        44                          0.0865924               2.3563
        45                          0.1173068               3.1921
        46                          0.1342037               3.6519
       ...                                ...                  ...
        66                          0.7447518              20.2657
      -------------------------------------------------------------
                  HL-Gap            0.0886664 Eh            2.4127 eV

     #   Z          covCN         q      C6AA      α(0)
     1   7 N        2.645    -0.241    26.299     7.616
     2   6 C        2.885     0.094    25.914     8.346
     3   6 C        2.979     0.007    27.852     8.657
     4   6 C        2.924    -0.028    28.700     8.785
     5   6 C        3.093    -0.075    29.747     8.939
     6   6 C        2.924    -0.032    28.803     8.801
     7   1 H        0.860     0.226     0.981     1.552
     8   6 C        2.980    -0.070    29.736     8.945
     9   7 N        2.776    -0.148    24.202     7.307
    10   6 C        2.869     0.257    22.678     7.806
    11   6 C        2.989     0.001    27.988     8.678
    12   6 C        2.919    -0.028    28.705     8.786
    13   6 C        2.919    -0.027    28.680     8.782
    14   6 C        2.920    -0.029    28.720     8.788
    15   1 H        0.926     0.031     2.566     2.505
    16   1 H        0.926     0.040     2.445     2.445
    17   1 H        0.860     0.168     1.287     1.777
    18   8 O        0.857    -0.488    23.527     6.503
    19   1 H        0.926     0.035     2.515     2.480
    20   1 H        0.926     0.037     2.494     2.470
    21   1 H        0.926     0.035     2.517     2.481
    22   1 H        0.926     0.029     2.598     2.521
    23   1 H        0.926     0.033     2.549     2.497
    24   1 H        0.860     0.172     1.258     1.757

Wiberg/Mayer (AO) data.
largest (>0.10) Wiberg bond orders for each atom

     #   Z sym  total        # sym  WBO       # sym  WBO       # sym  WBO
 ---------------------------------------------------------------------------
     1   7 N    3.391 --     2 C    1.285    24 H    0.947     7 H    0.896
     2   6 C    3.969 --     5 C    1.470     1 N    1.285     3 C    1.007
     3   6 C    3.989 --     6 C    1.404     4 C    1.399     2 C    1.007
                            14 C    0.110
     4   6 C    3.989 --    13 C    1.446     3 C    1.399    16 H    0.970
                            12 C    0.112
     5   6 C    3.968 --     2 C    1.470     8 C    1.154    10 C    1.071
     6   6 C    3.992 --    12 C    1.443     3 C    1.404    15 H    0.970
                            13 C    0.111
     7   1 H    0.948 --     1 N    0.896
     8   6 C    3.980 --    11 C    1.700     5 C    1.154    22 H    0.972
     9   7 N    3.510 --    10 C    1.177    11 C    1.125    17 H    0.943
                            18 O    0.144
    10   6 C    3.950 --    18 O    1.573     9 N    1.177     5 C    1.071
    11   6 C    3.950 --     8 C    1.700     9 N    1.125    23 H    0.970
    12   6 C    3.992 --     6 C    1.443    14 C    1.439    19 H    0.970
                             4 C    0.112
    13   6 C    3.991 --     4 C    1.446    14 C    1.437    20 H    0.970
                             6 C    0.111
    14   6 C    3.990 --    12 C    1.439    13 C    1.437    21 H    0.971
                             3 C    0.110
    15   1 H    0.999 --     6 C    0.970
    16   1 H    0.998 --     4 C    0.970
    17   1 H    0.971 --     9 N    0.943
    18   8 O    1.969 --    10 C    1.573     9 N    0.144
    19   1 H    0.998 --    12 C    0.970
    20   1 H    0.998 --    13 C    0.970
    21   1 H    0.998 --    14 C    0.971
    22   1 H    0.999 --     8 C    0.972
    23   1 H    0.998 --    11 C    0.970
    24   1 H    0.969 --     1 N    0.947
 ---------------------------------------------------------------------------

molecular dipole:
                 x           y           z       tot (Debye)
 q only:       -0.632      -0.941      -0.405
   full:       -0.604      -0.752      -0.602       2.889

           -------------------------------------------------
          | TOTAL ENERGY              -38.550719324743 Eh   |
          | GRADIENT NORM               0.000577055843 Eh/α |
          | HOMO-LUMO GAP               2.412734824855 eV   |
           -------------------------------------------------

 * finished run on 2023/11/18 at 08:44:10.552
