                               Psi4 1.6 release

  ==> Input File <==

--------------------------------------------------------------------------
molecule {
0 1
H 0.275027733527 0.601751848832 -0.979504168655
N 0.242298906385 -0.043140654725 -0.177753017175
C 1.316997121058 -0.909125317038 0.056542520031
C 2.558538734438 -0.587463414054 -0.5067383816
C -0.880642322475 0.068263392773 0.562690988242
C 1.180956063197 -2.082187156076 0.809737114708
C -1.893247077799 0.924501204597 0.214490717202
N -2.971185255743 2.510919431283 -0.965355844095
C -3.14501857058 1.215171313997 0.870084915556
C -1.798999845747 1.781383565741 -0.969885462189
C -3.771027606004 2.16810443537 0.128790837892
C 2.290204628298 -2.897373119597 1.022853206273
C 3.654287225059 -1.420598217922 -0.304384969909
C 3.529265950718 -2.575275103073 0.46899580977
H 0.212088069557 -2.377444386564 1.2015702875
H 2.658110190303 0.324871714737 -1.090973635833
H -3.192564681559 3.193169078428 -1.67839382531
O -0.877064488383 1.86725571265 -1.808459519845
H 2.176003419966 -3.805384825829 1.609470430956
H 4.61203624715 -1.159372459097 -0.746885432141
H -3.529082075035 0.755622844136 1.771330218802
H -4.728729176243 2.647864710674 0.278561103459
H 4.386724046876 -3.221921243859 0.632035426298
H -0.939222822094 -0.540616592424 1.462460195465
no_reorient
}
memory 20GB
set_num_threads(5)
psi4_io.set_default_path("/scratch/liuchw/Psi4-1_16_Index_0-farH_in17")
set freeze_core True
set PROPERTIES_ORIGIN ["COM"]
set cubeprop_tasks ['esp']
set basis 6-311G**
E, wfn = properties('mp2',properties=['dipole'],return_wfn=True)
cubeprop(wfn)
fchk(wfn, "1_16_Index_0-dma.fchk")
clean()
--------------------------------------------------------------------------

    Molecular point group: c1
  Charge       = 0
  Multiplicity = 1
  Basis Set: 6-311G**
    Blend: 6-311G**
  Basis Set: (6-311G** AUX)
    Blend: CC-PVTZ-JKFIT

    Orbital Energies [Eh]
    ---------------------

    Doubly Occupied:

       1A    -20.505713     2A    -15.598348     3A    -15.590804
       4A    -11.343416     5A    -11.317063     6A    -11.294060
       7A    -11.269871     8A    -11.246508     9A    -11.245070
      10A    -11.240665    11A    -11.237702    12A    -11.233867
      13A    -11.228113    14A    -11.223160    15A     -1.362817
      16A     -1.283723    17A     -1.262849    18A     -1.152949
      19A     -1.079562    20A     -1.025478    21A     -1.020280
      22A     -0.973329    23A     -0.902503    24A     -0.846722
      25A     -0.827465    26A     -0.795088    27A     -0.777519
      28A     -0.731868    29A     -0.699252    30A     -0.675808
      31A     -0.668186    32A     -0.624230    33A     -0.620727
      34A     -0.599895    35A     -0.597112    36A     -0.594424
      37A     -0.590609    38A     -0.580292    39A     -0.559703
      40A     -0.555673    41A     -0.518469    42A     -0.503294
      43A     -0.487727    44A     -0.464649    45A     -0.414199
      46A     -0.389511    47A     -0.346708    48A     -0.323612
      49A     -0.263745

  @DF-RHF Final Energy:  -606.26220345228637

   => Energetics <=

    Nuclear Repulsion Energy =            790.9618095552499426
    One-Electron Energy =               -2393.0593556411886311
    Two-Electron Energy =                 995.8353426336522034
    Total Energy =                       -606.2622034522863714
  Basis Set: (6-311G** AUX)
    Blend: CC-PVTZ-RI
    Molecular point group: c1

    Geometry (in Angstrom), charge = 0, multiplicity = 1:

       Center              X                  Y                   Z               Mass
    ------------   -----------------  -----------------  -----------------  -----------------
         H            0.349190202007     0.553178909373    -0.903105840367     1.007825032230
         N            0.316461374865    -0.091713594184    -0.101354688887    14.003074004430
         C            1.391159589538    -0.957698256497     0.132940848319    12.000000000000
         C            2.632701202918    -0.636036353513    -0.430340053312    12.000000000000
         C           -0.806479853995     0.019690453314     0.639089316530    12.000000000000
         C            1.255118531677    -2.130760095535     0.886135442996    12.000000000000
         C           -1.819084609319     0.875928265138     0.290889045490    12.000000000000
         N           -2.897022787263     2.462346491824    -0.888957515807    14.003074004430
         C           -3.070856102100     1.166598374538     0.946483243844    12.000000000000
         C           -1.724837377267     1.732810626282    -0.893487133901    12.000000000000
         C           -3.696865137524     2.119531495911     0.205189166180    12.000000000000
         C            2.364367096778    -2.945946059056     1.099251534561    12.000000000000
         C            3.728449693539    -1.469171157381    -0.227986641621    12.000000000000
         C            3.603428419198    -2.623848042532     0.545394138058    12.000000000000
         H            0.286250538037    -2.426017326023     1.277968615788     1.007825032230
         H            2.732272658783     0.276298775278    -1.014575307545     1.007825032230
         H           -3.118402213079     3.144596138969    -1.601995497022     1.007825032230
         O           -0.802902019903     1.818682773191    -1.732061191557    15.994914619570
         H            2.250165888446    -3.853957765288     1.685868759244     1.007825032230
         H            4.686198715630    -1.207945398556    -0.670487103853     1.007825032230
         H           -3.454919606555     0.707049904677     1.847728547090     1.007825032230
         H           -4.654566707763     2.599291771215     0.354959431747     1.007825032230
         H            4.460886515356    -3.270494183318     0.708433754586     1.007825032230
         H           -0.865060353614    -0.589189531883     1.538858523753     1.007825032230

  Basis Set: 6-311G**
    Blend: 6-311G**
  Basis Set: (6-311G** AUX)
    Blend: CC-PVTZ-JKFIT
	 Reference Energy          =    -606.2622034522863714 [Eh]
	 Singles Energy            =      -0.0000000000000000 [Eh]
	 Same-Spin Energy          =      -0.5504414146165774 [Eh]
	 Opposite-Spin Energy      =      -1.4934232589630894 [Eh]
	 Correlation Energy        =      -2.0438646735796668 [Eh]
	 Total Energy              =    -608.3060681258660907 [Eh]

	 ================> DF-SCS-MP2 Energies <==================
	-----------------------------------------------------------
	 SCS Same-Spin Scale       =       0.3333333333333333 [-]
	 SCS Opposite-Spin Scale   =       1.2000000000000000 [-]
	 SCS Same-Spin Energy      =      -0.1834804715388591 [Eh]
	 SCS Opposite-Spin Energy  =      -1.7921079107557072 [Eh]
	 SCS Correlation Energy    =      -1.9755883822945663 [Eh]
	 SCS Total Energy          =    -608.2377918345808894 [Eh]
	-----------------------------------------------------------

 Dipole X            :         -2.8015012            2.5085704           -0.2929307
 Dipole Y            :          3.5744339           -3.8110121           -0.2365782
 Dipole Z            :         -2.4224980            3.0166310            0.5941330
 Magnitude           :                                                    0.7034000
  Basis Set: 6-311G**
    Blend: 6-311G**
*** Psi4 exiting successfully. Buy a developer a beer!
