                               Psi4 1.6 release

  ==> Input File <==

--------------------------------------------------------------------------
molecule {
0 1
H         -1.68130       -0.10010       -2.92110
N         -1.86950       -0.60480       -2.05600
C         -0.69030       -0.69330       -1.27690
C          0.54570       -0.74670       -1.92620
C         -3.13200       -0.30890       -1.55600
C         -0.69900       -0.87610        0.10610
C         -3.56930        0.84960       -1.00940
N         -3.52250        3.04850       -0.30400
C         -4.88910        1.21140       -0.43690
C         -2.71040        2.09760       -0.89730
C         -4.78720        2.54830       -0.03700
C         -4.06450       -1.44090       -1.76170
C         -4.11830       -2.50030       -0.84590
C         -4.89140       -1.47140       -2.89490
C         -5.00460       -3.56020       -1.04690
C         -5.77650       -2.53260       -3.09260
C         -5.83500       -3.57330       -2.16680
C          0.49640       -1.04020        0.82360
C          1.74110       -0.91260       -1.20990
C          1.74620       -1.05080        0.18250
H         -1.63560       -0.88150        0.65530
H          0.59670       -0.66530       -3.00930
H         -3.20520        3.98790       -0.12020
O         -1.56570        2.29350       -1.25750
H         -3.47150       -2.50600        0.02660
H         -4.85310       -0.66750       -3.62570
H         -5.04800       -4.37620       -0.33030
H         -6.42130       -2.54800       -3.96760
H         -6.52760       -4.39750       -2.31960
H          0.40570       -1.13160        1.90150
H          2.65370       -0.96970       -1.79450
H         -5.71600        0.60000       -0.35090
H         -5.55090        3.08910        0.39820
H          2.62540       -1.15540        0.71270
}
memory 208GB
set_num_threads(51)
psi4_io.set_default_path("/scratch/liuchw/Psi4-farH_in17")
set maxiter 500
set freeze_core True
set PROPERTIES_ORIGIN ["COM"]
set cubeprop_tasks ['esp']
set basis MINIX
E, wfn = properties('hf',properties=['dipole','WIBERG_LOWDIN_INDICES','MULLIKEN_CHARGES'],return_wfn=True)
cubeprop(wfn)
fchk(wfn, "farH_in17-esp_frag.fchk")
clean()
--------------------------------------------------------------------------

    Molecular point group: c1

    Geometry (in Angstrom), charge = 0, multiplicity = 1:

       Center              X                  Y                   Z               Mass
    ------------   -----------------  -----------------  -----------------  -----------------
         H            0.937179343251     0.315429434533    -1.789609994244     1.007825032230
         N            0.748979343251    -0.189270565467    -0.924509994244    14.003074004430
         C            1.928179343251    -0.277770565467    -0.145409994244    12.000000000000
         C            3.164179343251    -0.331170565467    -0.794709994244    12.000000000000
         C           -0.513520656749     0.106629434533    -0.424509994244    12.000000000000
         C            1.919479343251    -0.460570565467     1.237590005756    12.000000000000
         C           -0.950820656749     1.265129434533     0.122090005756    12.000000000000
         N           -0.904020656749     3.464029434533     0.827490005756    14.003074004430
         C           -2.270620656749     1.626929434533     0.694590005756    12.000000000000
         C           -0.091920656749     2.513129434533     0.234190005756    12.000000000000
         C           -2.168720656749     2.963829434533     1.094490005756    12.000000000000
         C           -1.446020656749    -1.025370565467    -0.630209994244    12.000000000000
         C           -1.499820656749    -2.084770565467     0.285590005756    12.000000000000
         C           -2.272920656749    -1.055870565467    -1.763409994244    12.000000000000
         C           -2.386120656749    -3.144670565467     0.084590005756    12.000000000000
         C           -3.158020656749    -2.117070565467    -1.961109994244    12.000000000000
         C           -3.216520656749    -3.157770565467    -1.035309994244    12.000000000000
         C            3.114879343251    -0.624670565467     1.955090005756    12.000000000000
         C            4.359579343251    -0.497070565467    -0.078409994244    12.000000000000
         C            4.364679343251    -0.635270565467     1.313990005756    12.000000000000
         H            0.982879343251    -0.465970565467     1.786790005756     1.007825032230
         H            3.215179343251    -0.249770565467    -1.877809994244     1.007825032230
         H           -0.586720656749     4.403429434533     1.011290005756     1.007825032230
         O            1.052779343251     2.709029434533    -0.126009994244    15.994914619570
         H           -0.853020656749    -2.090470565467     1.158090005756     1.007825032230
         H           -2.234620656749    -0.251970565467    -2.494209994244     1.007825032230
         H           -2.429520656749    -3.960670565467     0.801190005756     1.007825032230
         H           -3.802820656749    -2.132470565467    -2.836109994244     1.007825032230
         H           -3.909120656749    -3.981970565467    -1.188109994244     1.007825032230
         H            3.024179343251    -0.716070565467     3.032990005756     1.007825032230
         H            5.272179343251    -0.554170565467    -0.663009994244     1.007825032230
         H           -3.097520656749     1.015529434533     0.780590005756     1.007825032230
         H           -2.932420656749     3.504629434533     1.529690005756     1.007825032230
         H            5.243879343251    -0.739870565467     1.844190005756     1.007825032230

  Charge       = 0
  Multiplicity = 1
  Basis Set: MINIX
    Blend: MINIX
  Basis Set: (MINIX AUX)
    Blend: DEF2-UNIVERSAL-JKFIT

    Orbital Energies [Eh]
    ---------------------

    Doubly Occupied:

       1A    -20.323532     2A    -15.470888     3A    -15.418585
       4A    -11.336706     5A    -11.245895     6A    -11.242737
       7A    -11.231246     8A    -11.198559     9A    -11.193179
      10A    -11.178293    11A    -11.177938    12A    -11.176614
      13A    -11.176385    14A    -11.174897    15A    -11.168690
      16A    -11.168496    17A    -11.163375    18A    -11.156364
      19A    -11.154664    20A    -11.154209    21A     -1.400333
      22A     -1.277066    23A     -1.252337    24A     -1.164810
      25A     -1.136411    26A     -1.085749    27A     -1.036901
      28A     -1.020023    29A     -1.004390    30A     -1.001760
      31A     -0.980407    32A     -0.903001    33A     -0.829041
      34A     -0.826041    35A     -0.818414    36A     -0.814196
      37A     -0.802774    38A     -0.746241    39A     -0.718170
      40A     -0.705531    41A     -0.691034    42A     -0.668425
      43A     -0.656570    44A     -0.638126    45A     -0.627490
      46A     -0.619040    47A     -0.610920    48A     -0.601930
      49A     -0.598082    50A     -0.589900    51A     -0.586960
      52A     -0.579808    53A     -0.568142    54A     -0.554892
      55A     -0.528073    56A     -0.518776    57A     -0.500907
      58A     -0.493403    59A     -0.489907    60A     -0.473527
      61A     -0.468251    62A     -0.437707    63A     -0.422518
      64A     -0.401263    65A     -0.349865    66A     -0.345885
      67A     -0.336069    68A     -0.296713    69A     -0.290013

  @DF-RHF Final Energy:  -829.85973488812795

   => Energetics <=

    Nuclear Repulsion Energy =           1417.5474697156575985
    One-Electron Energy =               -3942.8564232139642627
    Two-Electron Energy =                1695.4492186101786046
    Total Energy =                       -829.8597348881278322
 Dipole X            :         -0.1299057           -1.0916015           -1.2215072
 Dipole Y            :          6.1048844           -5.5316782            0.5732062
 Dipole Z            :         -0.8342355            1.0271054            0.1928699
 Magnitude           :                                                    1.3630275

  Mulliken Charges: (a.u.)
   Center  Symbol    Alpha    Beta     Spin     Total
       1     H     0.37135  0.37135  0.00000  0.25731
       2     N     3.70313  3.70313  0.00000 -0.40627
       3     C     2.94102  2.94102  0.00000  0.11796
       4     C     3.07625  3.07625  0.00000 -0.15250
       5     C     2.93233  2.93233  0.00000  0.13534
       6     C     3.08007  3.08007  0.00000 -0.16015
       7     C     3.02291  3.02291  0.00000 -0.04582
       8     N     3.70763  3.70763  0.00000 -0.41526
       9     C     3.09267  3.09267  0.00000 -0.18535
      10     C     2.80165  2.80165  0.00000  0.39670
      11     C     3.00218  3.00218  0.00000 -0.00436
      12     C     3.00546  3.00546  0.00000 -0.01092
      13     C     3.06441  3.06441  0.00000 -0.12882
      14     C     3.06590  3.06590  0.00000 -0.13181
      15     C     3.06881  3.06881  0.00000 -0.13762
      16     C     3.06932  3.06932  0.00000 -0.13864
      17     C     3.07000  3.07000  0.00000 -0.14001
      18     C     3.06098  3.06098  0.00000 -0.12196
      19     C     3.06136  3.06136  0.00000 -0.12272
      20     C     3.08505  3.08505  0.00000 -0.17010
      21     H     0.43382  0.43382  0.00000  0.13237
      22     H     0.43399  0.43399  0.00000  0.13202
      23     H     0.35703  0.35703  0.00000  0.28594
      24     O     4.20342  4.20342  0.00000 -0.40683
      25     H     0.42897  0.42897  0.00000  0.14207
      26     H     0.43077  0.43077  0.00000  0.13846
      27     H     0.42939  0.42939  0.00000  0.14121
      28     H     0.42981  0.42981  0.00000  0.14039
      29     H     0.43017  0.43017  0.00000  0.13967
      30     H     0.43165  0.43165  0.00000  0.13670
      31     H     0.43089  0.43089  0.00000  0.13821
      32     H     0.42567  0.42567  0.00000  0.14867
      33     H     0.42002  0.42002  0.00000  0.15997
      34     H     0.43191  0.43191  0.00000  0.13618

   Total alpha = 69.00000, Total beta = 69.00000, Total charge =  0.00000

  Basis Set: MINIX
    Blend: MINIX
*** Psi4 exiting successfully. Buy a developer a beer!
