                               Psi4 1.6 release

  ==> Input File <==

--------------------------------------------------------------------------
molecule {
0 1
 C    7.862500   -0.649200    1.540900
 N    6.609300   -0.198000    0.919400
 C    5.417000   -0.912000    1.425500
 C    4.207900   -0.750700    0.463500
 C    6.490300    1.264400    0.984300
 H    5.638500   -1.984900    1.468800
 H    5.161100   -0.544900    2.425100
 O    4.378600   -0.195400   -0.626700
 H    6.572900    1.598000    2.027600
 H    5.517900    1.623500    0.630900
 H    8.111400   -1.635000    1.129800
 H    7.742600   -0.778300    2.624200
 H    8.640600    0.102000    1.340400
 H    3.214000   -1.125600    0.749000
 H    7.292000    1.663400    0.345600
}
set {
  geom_maxiter 400
  g_convergence GAU_LOOSE
  dynamic_level 1
}
geometric_keywords = {
 'coordsys' : 'tric',
 'convergence_cmax' : 1e0,
 'convergence_set' : 'GAU_LOOSE',
 'convergence_energy' : 1e-4,
}
memory 20GB
set_num_threads(5)
psi4_io.set_default_path("/scratch/liuchw/Psi4-4_27_Index_0-farH_in17")
basis {
assign 6-31G*
}
opt_finished = False
if not opt_finished:
    try:
        ener, opt_hist = optimize('mp2',engine='geometric',optimizer_keywords=geometric_keywords, return_history=True)
        opt_finished = len(opt_hist['energy']) < 400
    except Exception as e:
        core.print_out('Exception: %s'%(e))
if not opt_finished:
    try:
        optimize('mp2')
    except:
        set opt_coordinates both
        optimize('mp2')
    opt_finished = True
clean()
assert opt_finished

--------------------------------------------------------------------------

    Molecular point group: c1
  Charge       = 0
  Multiplicity = 1
  Basis Set: ANONYMOUS42E0A0AD
    Blend: 6-31G*
  Basis Set: (ANONYMOUS42E0A0AD AUX)
    Blend: CC-PVDZ-JKFIT
  @DF-RHF Final Energy:  -285.97222156691583
    Total Energy =                       -285.9722215669158345
 Dipole X            :         -4.9957793            4.9706840           -0.0250953
 Dipole Y            :         -1.2724507            0.8811725           -0.3912782
 Dipole Z            :         -3.9759447            5.2839202            1.3079755
 Magnitude           :                                                    1.3654774
  Basis Set: (ANONYMOUS42E0A0AD AUX)
    Blend: CC-PVDZ-RI
    Molecular point group: c1
  Basis Set: ANONYMOUS42E0A0AD
    Blend: 6-31G*
  Basis Set: (ANONYMOUS42E0A0AD AUX)
    Blend: CC-PVDZ-JKFIT
  Basis Set: (ANONYMOUS42E0A0AD AUX)
    Blend: CC-PVDZ-JKFIT
	 Reference Energy          =    -285.9722215669158345 [Eh]
	 Singles Energy            =      -0.0000000000000000 [Eh]
	 Same-Spin Energy          =      -0.2219849677222888 [Eh]
	 Opposite-Spin Energy      =      -0.6648654482454858 [Eh]
	 Correlation Energy        =      -0.8868504159677746 [Eh]
	 Total Energy              =    -286.8590719828836200 [Eh]
	 SCS Total Energy          =    -286.8440550940511571 [Eh]
  @DF-RHF Final Energy:  -285.97657193104209
    Total Energy =                       -285.9765719310420877
  @DF-RHF Final Energy:  -285.98346011336315
    Total Energy =                       -285.9834601133631509
  @DF-RHF Final Energy:  -285.98419425623882
    Total Energy =                       -285.9841942562388226
  @DF-RHF Final Energy:  -285.98454987634335
    Total Energy =                       -285.9845498763433511
  @DF-RHF Final Energy:  -285.98485119184880
    Total Energy =                       -285.9848511918488043
  @DF-RHF Final Energy:  -285.98499619245058
    Total Energy =                       -285.9849961924505806
  Charge       = 0
  Multiplicity = 1
  Basis Set: ANONYMOUS42E0A0AD
    Blend: 6-31G*
  Basis Set: (ANONYMOUS42E0A0AD AUX)
    Blend: CC-PVDZ-JKFIT

    Orbital Energies [Eh]
    ---------------------

    Doubly Occupied:

       1A    -20.568040     2A    -15.561181     3A    -11.339164
       4A    -11.273623     5A    -11.250623     6A    -11.240258
       7A     -1.385105     8A     -1.239129     9A     -1.009125
      10A     -0.954056    11A     -0.856861    12A     -0.771726
      13A     -0.684357    14A     -0.658748    15A     -0.645836
      16A     -0.618351    17A     -0.579705    18A     -0.563390
      19A     -0.542810    20A     -0.518214    21A     -0.516334
      22A     -0.488262    23A     -0.419798    24A     -0.366081

  @DF-RHF Final Energy:  -285.98511167834488

   => Energetics <=

    Nuclear Repulsion Energy =            246.8499144814918793
    One-Electron Energy =                -877.5685009588504499
    Two-Electron Energy =                 344.7334747990137203
    Total Energy =                       -285.9851116783448788
 Dipole X            :         -2.3265048            2.5757493            0.2492445
 Dipole Y            :         -4.2731996            3.7611879           -0.5120116
 Dipole Z            :         -3.8013787            5.0638042            1.2624255
 Magnitude           :                                                    1.3849176
  Basis Set: (ANONYMOUS42E0A0AD AUX)
    Blend: CC-PVDZ-RI
    Molecular point group: c1
  Basis Set: ANONYMOUS42E0A0AD
    Blend: 6-31G*
  Basis Set: (ANONYMOUS42E0A0AD AUX)
    Blend: CC-PVDZ-JKFIT
  Basis Set: (ANONYMOUS42E0A0AD AUX)
    Blend: CC-PVDZ-JKFIT
	 Reference Energy          =    -285.9851116783448788 [Eh]
	 Singles Energy            =      -0.0000000000000000 [Eh]
	 Same-Spin Energy          =      -0.2223308776848730 [Eh]
	 Opposite-Spin Energy      =      -0.6628028251070031 [Eh]
	 Correlation Energy        =      -0.8851337027918761 [Eh]
	 Total Energy              =    -286.8702453811367832 [Eh]

	 ================> DF-SCS-MP2 Energies <==================
	-----------------------------------------------------------
	 SCS Same-Spin Scale       =       0.3333333333333333 [-]
	 SCS Opposite-Spin Scale   =       1.2000000000000000 [-]
	 SCS Same-Spin Energy      =      -0.0741102925616243 [Eh]
	 SCS Opposite-Spin Energy  =      -0.7953633901284036 [Eh]
	 SCS Correlation Energy    =      -0.8694736826900280 [Eh]
	 SCS Total Energy          =    -286.8545853610348786 [Eh]
	-----------------------------------------------------------

  -Total Gradient:
     Atom            X                  Y                   Z
    ------   -----------------  -----------------  -----------------
       1        0.000146937744     0.000113863657     0.000088679591
       2        0.000019498260    -0.000255288175    -0.000168225907
       3       -0.000179775959    -0.000098303339    -0.000076278441
       4        0.000123962557     0.000197994533     0.000332180120
       5        0.000086184247     0.000375481020    -0.000073140422
       6        0.000069103607     0.000035363619    -0.000192023974
       7        0.000032116257    -0.000014910816     0.000020373947
       8       -0.000066941560    -0.000148017314    -0.000113227648
       9        0.000013995134     0.000023942242     0.000009991394
      10        0.000079543542    -0.000099295271     0.000113757021
      11       -0.000087186287     0.000019940365     0.000063571278
      12       -0.000011183833    -0.000018959158     0.000017079895
      13       -0.000161736402    -0.000034352126     0.000008421636
      14        0.000022272436    -0.000011036938    -0.000055031954
      15       -0.000086789744    -0.000086422301     0.000023873465

    Molecular point group: c1

    Geometry (in Angstrom), charge = 0, multiplicity = 1:

    C            1.984075411262    -0.425096198732     0.757785897996
    N            0.796640920971     0.036284568551     0.052986394344
    C           -0.370009779273    -0.666758620589     0.532197956011
    C           -1.609222523401    -0.484837582797    -0.308645683636
    C            0.647890183453     1.478971752163     0.206124664211
    H           -0.163734525536    -1.746632039440     0.538335748190
    H           -0.643478809668    -0.411142506991     1.580125497137
    O           -1.700800980599     0.202066166593    -1.313560494123
    H            0.512277152049     1.776661871134     1.262119009699
    H           -0.204322303605     1.821871084313    -0.377985001474
    H            2.112172363122    -1.499141253415     0.599605440210
    H            1.941588773764    -0.234479011653     1.845492588957
    H            2.860066574410     0.087895714005     0.354184441312
    H           -2.484624624388    -1.057777853573     0.065915101544
    H            1.546604877879     1.968881529833    -0.175340884465

*** Psi4 exiting successfully. Buy a developer a beer!
