   * xtb version 6.5.0 (97a52f5) compiled by 'conda@d2599ee0d4f4' on 2022-05-15
          program call               : /home/liuchw/anaconda3/envs/xtbenv/bin/xtb --gfn 2 --chrg 0 --uhf 0 4_27_Index_0-opt-2-3-159_preQMOPTprefit_xyzformat.xyz --opt --input xtb-opt-2-3-159_constr.txt

   ID    Z sym.   atoms
    1    6 C      1, 3-5
    2    7 N      2
    3    1 H      6, 7, 9-15
    4    8 O      8
constraining angle 5 2 3 4 to  158.9554518°, actual value:  158.9554518°
constraining angle 2 3 4 8 to  359.0184373°, actual value:   -0.9815627°
constraining angle 10 5 2 1 to  175.9978283°, actual value:  175.9978283°
constraining angle 13 1 2 5 to  300.9956407°, actual value:  -59.0043593°

          :  Hamiltonian                  GFN2-xTB          :
 * total energy  :   -20.0990655 Eh     change       -0.3971934E-10 Eh
 * total energy  :   -20.1045886 Eh     change       -0.5523173E-02 Eh
 * total energy  :   -20.1053851 Eh     change       -0.7965213E-03 Eh
 * total energy  :   -20.1055131 Eh     change       -0.1279896E-03 Eh
 * total energy  :   -20.1055402 Eh     change       -0.2704322E-04 Eh
 * total energy  :   -20.1055483 Eh     change       -0.8128777E-05 Eh
 * total energy  :   -20.1055495 Eh     change       -0.1236369E-05 Eh
   *** GEOMETRY OPTIMIZATION CONVERGED AFTER 7 ITERATIONS ***

 final structure:
================
15
 xtb: 6.5.0 (97a52f5)
C            1.69756349407539       -0.52106636428820        0.23397224895314
N            0.59574351840247        0.40821034737231        0.11267106984207
C           -0.64626619141835       -0.16263245070720        0.58040174239820
C           -1.23564475207950       -1.18284452634305       -0.35689440248861
C            0.88652703131550        1.67945881514339        0.73755283889055
H           -0.56038593355042       -0.63878593352349        1.57859812804146
H           -1.39451214641183        0.63245062054749        0.67454377258734
O           -0.79614812473388       -1.53336222129363       -1.41173962114221
H            1.05060209749967        1.59597740473019        1.82478810555182
H            0.06222074812982        2.36923035891300        0.56140566141869
H            1.45034226386869       -1.43831725531801       -0.29508549259391
H            1.93246540550001       -0.76332048834560        1.28391640174426
H            2.57980132366027       -0.08571614875006       -0.23162714206685
H           -2.18293838138564       -1.60672044684421        0.04152296645229
H            1.78574866712782        2.09420726870707        0.28530972241174

          :  Hamiltonian                  GFN2-xTB          :
         :: total energy             -20.105549547607 Eh    ::
         :: gradient norm              0.000671816927 Eh/a0 ::
         :: HOMO-LUMO gap              2.503134659450 eV    ::
         :: SCC energy               -20.341288152057 Eh    ::
         :: -> dispersion             -0.008573524625 Eh    ::
         :: repulsion energy           0.235719312663 Eh    ::

    * Orbital Energies and Occupations

         #    Occupation            Energy/Eh            Energy/eV
      -------------------------------------------------------------
         1        2.0000           -0.7211318             -19.6230
       ...           ...                  ...                  ...
         6        2.0000           -0.5689155             -15.4810
         7        2.0000           -0.5660612             -15.4033
         8        2.0000           -0.5526892             -15.0394
         9        2.0000           -0.5352014             -14.5636
        10        2.0000           -0.5222751             -14.2118
        11        2.0000           -0.5166052             -14.0575
        12        2.0000           -0.4952503             -13.4764
        13        2.0000           -0.4836904             -13.1619
        14        2.0000           -0.4722449             -12.8504
        15        2.0000           -0.4625016             -12.5853
        16        2.0000           -0.4569278             -12.4336
        17        2.0000           -0.4070288             -11.0758
        18        2.0000           -0.3554905              -9.6734 (HOMO)
        19                         -0.2635020              -7.1703 (LUMO)
        20                          0.0218263               0.5939
        21                          0.0786831               2.1411
        22                          0.0974277               2.6511
        23                          0.1162963               3.1646
        24                          0.1314843               3.5779
        25                          0.1561798               4.2499
        26                          0.1700680               4.6278
        27                          0.1989065               5.4125
        28                          0.2048065               5.5731
        29                          0.2082485               5.6667
       ...                                ...                  ...
        33                          0.6311080              17.1733
      -------------------------------------------------------------
                  HL-Gap            0.0919885 Eh            2.5031 eV

     #   Z          covCN         q      C6AA      α(0)
     1   6 C        3.714    -0.035    21.335     6.599
     2   7 N        2.725    -0.154    24.332     7.326
     3   6 C        3.764    -0.013    20.843     6.508
     4   6 C        2.755     0.212    23.520     7.942
     5   6 C        3.713    -0.036    21.343     6.601
     6   1 H        0.922     0.039     2.466     2.456
     7   1 H        0.924     0.067     2.118     2.276
     8   8 O        0.856    -0.303    19.838     5.972
     9   1 H        0.923     0.013     2.843     2.637
    10   1 H        0.925     0.039     2.468     2.457
    11   1 H        0.925     0.054     2.269     2.356
    12   1 H        0.923     0.009     2.907     2.666
    13   1 H        0.925     0.045     2.377     2.411
    14   1 H        0.921     0.015     2.803     2.619
    15   1 H        0.925     0.048     2.347     2.396

Wiberg/Mayer (AO) data.
largest (>0.10) Wiberg bond orders for each atom

     #   Z sym  total        # sym  WBO       # sym  WBO       # sym  WBO
 ---------------------------------------------------------------------------
     1   6 C    3.984 --     2 N    1.014    13 H    0.983    11 H    0.981
                            12 H    0.973
     2   7 N    3.135 --     3 C    1.017     5 C    1.015     1 C    1.014
     3   6 C    3.993 --     2 N    1.017     4 C    1.003     7 H    0.938
                             6 H    0.931
     4   6 C    3.921 --     8 O    1.936     3 C    1.003    14 H    0.928
     5   6 C    3.986 --     2 N    1.015    10 H    0.982    15 H    0.982
                             9 H    0.974
     6   1 H    0.998 --     3 C    0.931
     7   1 H    0.995 --     3 C    0.938
     8   8 O    2.112 --     4 C    1.936
     9   1 H    1.000 --     5 C    0.974
    10   1 H    0.999 --     5 C    0.982
    11   1 H    0.997 --     1 C    0.981
    12   1 H    1.000 --     1 C    0.973
    13   1 H    0.998 --     1 C    0.983
    14   1 H    0.999 --     4 C    0.928
    15   1 H    0.997 --     5 C    0.982
 ---------------------------------------------------------------------------

molecular dipole:
                 x           y           z       tot (Debye)
 q only:       -0.056       0.432       0.840
   full:       -0.156       0.430       1.346       3.613

           -------------------------------------------------
          | TOTAL ENERGY              -20.105549547607 Eh   |
          | GRADIENT NORM               0.000671816927 Eh/α |
          | HOMO-LUMO GAP               2.503134659450 eV   |
           -------------------------------------------------

 * finished run on 2023/11/18 at 08:11:08.394
