                               Psi4 1.6 release

  ==> Input File <==

--------------------------------------------------------------------------
molecule {
0 1
 C    1.988427   -0.427055    0.755796
 N    0.794633    0.043895    0.086448
 C   -0.381788   -0.663433    0.538594
 C   -1.594945   -0.482383   -0.332722
 C    0.648208    1.478530    0.221962
 H   -0.168134   -1.738271    0.548091
 H   -0.682504   -0.389281    1.571620
 O   -1.688069    0.181436   -1.322935
 H    0.525619    1.791103    1.272345
 H   -0.215866    1.806874   -0.349754
 H    2.098047   -1.498886    0.594593
 H    1.976380   -0.232582    1.840636
 H    2.852957    0.073603    0.323402
 H   -2.462305   -1.059205    0.055219
 H    1.534460    1.962424   -0.183956
}
memory 20GB
set_num_threads(5)
psi4_io.set_default_path("/scratch/liuchw/Psi4-4_27_Index_0-farH_in17")
set freeze_core True
E, wfn = energy('wb97x-d/6-311+G*',return_wfn=True)
oeprop(wfn,"WIBERG_LOWDIN_INDICES")
clean()
--------------------------------------------------------------------------

    Molecular point group: c1

    Geometry (in Angstrom), charge = 0, multiplicity = 1:

       Center              X                  Y                   Z               Mass
    ------------   -----------------  -----------------  -----------------  -----------------
         C            2.016600508254    -0.462728169137     0.756135428650    12.000000000000
         N            0.822806508254     0.008221830863     0.086787428650    14.003074004430
         C           -0.353614491746    -0.699106169137     0.538933428650    12.000000000000
         C           -1.566771491746    -0.518056169137    -0.332382571350    12.000000000000
         C            0.676381508254     1.442856830863     0.222301428650    12.000000000000
         H           -0.139960491746    -1.773944169137     0.548430428650     1.007825032230
         H           -0.654330491746    -0.424954169137     1.571959428650     1.007825032230
         O           -1.659895491746     0.145762830863    -1.322595571350    15.994914619570
         H            0.553792508254     1.755429830863     1.272684428650     1.007825032230
         H           -0.187692491746     1.771200830863    -0.349414571350     1.007825032230
         H            2.126220508254    -1.534559169137     0.594932428650     1.007825032230
         H            2.004553508254    -0.268255169137     1.840975428650     1.007825032230
         H            2.881130508254     0.037929830863     0.323741428650     1.007825032230
         H           -2.434131491746    -1.094878169137     0.055558428650     1.007825032230
         H            1.562633508254     1.926750830863    -0.183616571350     1.007825032230

  Charge       = 0
  Multiplicity = 1
  Basis Set: 6-311+G*
    Blend: 6-311+G*
  Basis Set: (6-311+G* AUX)
    Blend: HEAVY-AUG-CC-PVTZ-JKFIT

    Orbital Energies [Eh]
    ---------------------

    Doubly Occupied:

       1A    -19.254510     2A    -14.433557     3A    -10.381212
       4A    -10.327847     5A    -10.304085     6A    -10.295674
       7A     -1.167970     8A     -1.040732     9A     -0.856163
      10A     -0.811831    11A     -0.730468    12A     -0.657246
      13A     -0.596439    14A     -0.582001    15A     -0.566213
      16A     -0.539218    17A     -0.517442    18A     -0.500646
      19A     -0.481372    20A     -0.465109    21A     -0.458618
      22A     -0.446530    23A     -0.347975    24A     -0.307612

  @DF-RKS Final Energy:  -287.76634897620659

   => Energetics <=

    Nuclear Repulsion Energy =            247.6847831761371879
    One-Electron Energy =                -879.8760583754550453
    Two-Electron Energy =                 372.2926843613464030
    DFT Exchange-Correlation Energy =     -27.8604306700405537
    Empirical Dispersion Energy =          -0.0073274681945958
    VV10 Nonlocal Energy =                  0.0000000000000000
    Total Energy =                       -287.7663489762065865
 Dipole X            :         -5.0478695            5.3446621            0.2967926
 Dipole Y            :         -0.8228353            0.3707149           -0.4521204
 Dipole Z            :         -4.1967896            5.3137673            1.1169777
 Magnitude           :                                                    1.2410229
*** Psi4 exiting successfully. Buy a developer a beer!
