   * xtb version 6.5.0 (97a52f5) compiled by 'conda@d2599ee0d4f4' on 2022-05-15
          program call               : /home/liuchw/anaconda3/envs/xtbenv/bin/xtb --gfn 2 --chrg 0 --uhf 0 4_27_Index_0-opt-2-3-309_preQMOPTprefit_xyzformat.xyz --opt --input xtb-opt-2-3-309_constr.txt

   ID    Z sym.   atoms
    1    6 C      1, 3-5
    2    7 N      2
    3    1 H      6, 7, 9-15
    4    8 O      8
constraining angle 5 2 3 4 to  308.9577449°, actual value:  -51.0422551°
constraining angle 2 3 4 8 to  358.9949993°, actual value:   -1.0050007°
constraining angle 10 5 2 1 to  176.0130574°, actual value:  176.0130574°
constraining angle 13 1 2 5 to  301.0068555°, actual value:  -58.9931445°

          :  Hamiltonian                  GFN2-xTB          :
 * total energy  :   -20.1007052 Eh     change       -0.5426415E-10 Eh
 * total energy  :   -20.1061067 Eh     change       -0.5401419E-02 Eh
 * total energy  :   -20.1066842 Eh     change       -0.5775223E-03 Eh
 * total energy  :   -20.1066265 Eh     change        0.5773196E-04 Eh
 * total energy  :   -20.1068302 Eh     change       -0.2037724E-03 Eh
 * total energy  :   -20.1068393 Eh     change       -0.9102445E-05 Eh
 * total energy  :   -20.1068431 Eh     change       -0.3813852E-05 Eh
 * total energy  :   -20.1068441 Eh     change       -0.9474320E-06 Eh
   *** GEOMETRY OPTIMIZATION CONVERGED AFTER 8 ITERATIONS ***

 final structure:
================
15
 xtb: 6.5.0 (97a52f5)
C            1.65084538098916       -0.17027441851324        1.29802904700866
N            0.99225453179865       -0.11266161071287        0.00670626411271
C           -0.23453847513361       -0.87950696846267       -0.02962966630895
C           -1.47700518382054       -0.32102637663458        0.62374058125683
C            0.83472816528231        1.25893169442055       -0.44300032747404
H           -0.50304305940847       -1.04226142398175       -1.08350017366199
H           -0.04660009762603       -1.86848405077072        0.40105891984581
O           -1.59232569455179        0.71576986506019        1.21325489611497
H            0.21128515035950        1.86925039415260        0.21790981347326
H            0.40208829220553        1.25463195542804       -1.44354443242031
H            1.80114820034040       -1.21260633513977        1.57831504216542
H            1.08571900395545        0.33308836266064        2.09391418202639
H            2.62686763717786        0.30510508848389        1.21078285209720
H           -2.35090498473364       -0.99381034059795        0.47979313489262
H            1.82460213316519        1.71061717460765       -0.50448813312862

          :  Hamiltonian                  GFN2-xTB          :
         :: total energy             -20.106844093182 Eh    ::
         :: gradient norm              0.000682786975 Eh/a0 ::
         :: HOMO-LUMO gap              2.220505125886 eV    ::
         :: SCC energy               -20.342054094397 Eh    ::
         :: -> dispersion             -0.008843218790 Eh    ::
         :: repulsion energy           0.235184480106 Eh    ::

    * Orbital Energies and Occupations

         #    Occupation            Energy/Eh            Energy/eV
      -------------------------------------------------------------
         1        2.0000           -0.7248247             -19.7235
       ...           ...                  ...                  ...
         6        2.0000           -0.5717098             -15.5570
         7        2.0000           -0.5649551             -15.3732
         8        2.0000           -0.5527177             -15.0402
         9        2.0000           -0.5346672             -14.5490
        10        2.0000           -0.5209389             -14.1755
        11        2.0000           -0.5151205             -14.0171
        12        2.0000           -0.4932881             -13.4231
        13        2.0000           -0.4743266             -12.9071
        14        2.0000           -0.4646509             -12.6438
        15        2.0000           -0.4594452             -12.5021
        16        2.0000           -0.4549402             -12.3796
        17        2.0000           -0.4226783             -11.5017
        18        2.0000           -0.3478768              -9.4662 (HOMO)
        19                         -0.2662747              -7.2457 (LUMO)
        20                          0.0272104               0.7404
        21                          0.0623524               1.6967
        22                          0.0906299               2.4662
        23                          0.1216385               3.3100
        24                          0.1310077               3.5649
        25                          0.1649436               4.4883
        26                          0.1829613               4.9786
        27                          0.1996616               5.4331
        28                          0.2123854               5.7793
        29                          0.2243585               6.1051
       ...                                ...                  ...
        33                          0.6208243              16.8935
      -------------------------------------------------------------
                  HL-Gap            0.0816021 Eh            2.2205 eV

     #   Z          covCN         q      C6AA      α(0)
     1   6 C        3.712    -0.035    21.338     6.601
     2   7 N        2.723    -0.163    24.521     7.355
     3   6 C        3.757    -0.019    20.966     6.528
     4   6 C        2.753     0.209    23.570     7.950
     5   6 C        3.710    -0.038    21.397     6.611
     6   1 H        0.923     0.067     2.120     2.277
     7   1 H        0.924     0.067     2.119     2.277
     8   8 O        0.856    -0.320    20.148     6.018
     9   1 H        0.924     0.041     2.440     2.443
    10   1 H        0.925     0.034     2.527     2.486
    11   1 H        0.925     0.034     2.525     2.485
    12   1 H        0.923     0.027     2.623     2.533
    13   1 H        0.925     0.044     2.399     2.422
    14   1 H        0.921     0.011     2.876     2.652
    15   1 H        0.925     0.041     2.435     2.440

Wiberg/Mayer (AO) data.
largest (>0.10) Wiberg bond orders for each atom

     #   Z sym  total        # sym  WBO       # sym  WBO       # sym  WBO
 ---------------------------------------------------------------------------
     1   6 C    3.985 --     2 N    1.012    11 H    0.983    13 H    0.982
                            12 H    0.976
     2   7 N    3.131 --     3 C    1.019     1 C    1.012     5 C    1.009
     3   6 C    3.993 --     2 N    1.019     4 C    0.995     7 H    0.941
                             6 H    0.935
     4   6 C    3.914 --     8 O    1.923     3 C    0.995    14 H    0.928
     5   6 C    3.983 --     2 N    1.009    10 H    0.984    15 H    0.983
                             9 H    0.974
     6   1 H    0.996 --     3 C    0.935
     7   1 H    0.996 --     3 C    0.941
     8   8 O    2.102 --     4 C    1.923
     9   1 H    0.998 --     5 C    0.974
    10   1 H    0.999 --     5 C    0.984
    11   1 H    0.999 --     1 C    0.983
    12   1 H    0.999 --     1 C    0.976
    13   1 H    0.998 --     1 C    0.982
    14   1 H    1.000 --     4 C    0.928
    15   1 H    0.998 --     5 C    0.983
 ---------------------------------------------------------------------------

molecular dipole:
                 x           y           z       tot (Debye)
 q only:        0.370      -0.640      -0.424
   full:        0.146      -0.724      -0.341       2.066

           -------------------------------------------------
          | TOTAL ENERGY              -20.106844093182 Eh   |
          | GRADIENT NORM               0.000682786975 Eh/α |
          | HOMO-LUMO GAP               2.220505125886 eV   |
           -------------------------------------------------

 * finished run on 2023/11/18 at 08:12:51.791
