                               Psi4 1.6 release

  ==> Input File <==

--------------------------------------------------------------------------
molecule {
0 1
 C    1.650845   -0.170274    1.298029
 N    0.992255   -0.112662    0.006706
 C   -0.234538   -0.879507   -0.029630
 C   -1.477005   -0.321026    0.623741
 C    0.834728    1.258932   -0.443000
 H   -0.503043   -1.042261   -1.083500
 H   -0.046600   -1.868484    0.401059
 O   -1.592326    0.715770    1.213255
 H    0.211285    1.869250    0.217910
 H    0.402088    1.254632   -1.443544
 H    1.801148   -1.212606    1.578315
 H    1.085719    0.333088    2.093914
 H    2.626868    0.305105    1.210783
 H   -2.350905   -0.993810    0.479793
 H    1.824602    1.710617   -0.504488
}
memory 20GB
set_num_threads(5)
psi4_io.set_default_path("/scratch/liuchw/Psi4-4_27_Index_0-farH_in17")
set freeze_core True
E, wfn = energy('wb97x-d/6-311+G*',return_wfn=True)
oeprop(wfn,"WIBERG_LOWDIN_INDICES")
clean()
--------------------------------------------------------------------------

    Molecular point group: c1

    Geometry (in Angstrom), charge = 0, multiplicity = 1:

       Center              X                  Y                   Z               Mass
    ------------   -----------------  -----------------  -----------------  -----------------
         C            1.618634130879    -0.272341768962     0.840195662998    12.000000000000
         N            0.960044130879    -0.214729768962    -0.451127337002    14.003074004430
         C           -0.266748869121    -0.981574768962    -0.487463337002    12.000000000000
         C           -1.509215869121    -0.423093768962     0.165907662998    12.000000000000
         C            0.802517130879     1.156864231038    -0.900833337002    12.000000000000
         H           -0.535253869121    -1.144328768962    -1.541333337002     1.007825032230
         H           -0.078810869121    -1.970551768962    -0.056774337002     1.007825032230
         O           -1.624536869121     0.613702231038     0.755421662998    15.994914619570
         H            0.179074130879     1.767182231038    -0.239923337002     1.007825032230
         H            0.369877130879     1.152564231038    -1.901377337002     1.007825032230
         H            1.768937130879    -1.314673768962     1.120481662998     1.007825032230
         H            1.053508130879     0.231020231038     1.636080662998     1.007825032230
         H            2.594657130879     0.203037231038     0.752949662998     1.007825032230
         H           -2.383115869121    -1.095877768962     0.021959662998     1.007825032230
         H            1.792391130879     1.608549231038    -0.962321337002     1.007825032230

  Charge       = 0
  Multiplicity = 1
  Basis Set: 6-311+G*
    Blend: 6-311+G*
  Basis Set: (6-311+G* AUX)
    Blend: HEAVY-AUG-CC-PVTZ-JKFIT

    Orbital Energies [Eh]
    ---------------------

    Doubly Occupied:

       1A    -19.257230     2A    -14.430222     3A    -10.382150
       4A    -10.326496     5A    -10.297547     6A    -10.292137
       7A     -1.170073     8A     -1.034591     9A     -0.853977
      10A     -0.807463    11A     -0.730607    12A     -0.656040
      13A     -0.595986    14A     -0.577716    15A     -0.565596
      16A     -0.540335    17A     -0.511494    18A     -0.507880
      19A     -0.469715    20A     -0.456875    21A     -0.452065
      22A     -0.447489    23A     -0.369215    24A     -0.292243

  @DF-RKS Final Energy:  -287.76529849054310

   => Energetics <=

    Nuclear Repulsion Energy =            250.6628859041379940
    One-Electron Energy =                -885.9169923982458386
    Two-Electron Energy =                 375.3614935895887470
    DFT Exchange-Correlation Energy =     -27.8649963525628408
    Empirical Dispersion Energy =          -0.0076892334611274
    VV10 Nonlocal Energy =                  0.0000000000000000
    Total Energy =                       -287.7652984905431026
 Dipole X            :         -4.3326920            4.4529455            0.1202535
 Dipole Y            :         -0.1488006           -0.5242968           -0.6730974
 Dipole Z            :          0.7929414           -1.0921411           -0.2991996
 Magnitude           :                                                    0.7463521
*** Psi4 exiting successfully. Buy a developer a beer!
