                               Psi4 1.6 release

  ==> Input File <==

--------------------------------------------------------------------------
molecule {
0 1
C          1.74620       -1.05080        0.18250
N          2.96770       -1.22590        0.93830
C          4.20790       -0.75070        0.46350
C          5.41700       -0.91200        1.42550
C          2.83610       -1.83070        2.26690
O          4.37860       -0.19540       -0.62670
C          0.49640       -1.04020        0.82360
C         -0.69030       -0.69330       -1.27690
C         -0.69900       -0.87610        0.10610
C          0.54570       -0.74670       -1.92620
C          1.74110       -0.91260       -1.20990
H          3.76190       -2.31380        2.58500
H          2.07280       -2.61550        2.26200
H          2.58270       -1.04830        2.98880
N          6.60930       -0.19800        0.91940
H          5.63850       -1.98490        1.46880
H          5.16110       -0.54490        2.42510
H          0.40570       -1.13160        1.90150
H         -1.63560       -0.88150        0.65530
H          0.59670       -0.66530       -3.00930
H          2.65370       -0.96970       -1.79450
N         -1.86950       -0.60480       -2.05600
C          7.86250       -0.64920        1.54090
H         -1.68130       -0.10010       -2.92110
H          8.11140       -1.63500        1.12980
H          7.74260       -0.77830        2.62420
H          6.49460        0.79800        1.10730
H         -2.74410       -0.97680       -1.79920
H          8.61940        0.08150        1.34590
}
memory 208GB
set_num_threads(51)
psi4_io.set_default_path("/scratch/liuchw/Psi4-farH_in17")
set maxiter 500
set freeze_core True
set PROPERTIES_ORIGIN ["COM"]
set cubeprop_tasks ['esp']
set basis MINIX
E, wfn = properties('hf',properties=['dipole','WIBERG_LOWDIN_INDICES','MULLIKEN_CHARGES'],return_wfn=True)
cubeprop(wfn)
fchk(wfn, "farH_in17-esp_frag.fchk")
clean()
--------------------------------------------------------------------------

    Molecular point group: c1

    Geometry (in Angstrom), charge = 0, multiplicity = 1:

       Center              X                  Y                   Z               Mass
    ------------   -----------------  -----------------  -----------------  -----------------
         C           -0.882617480256    -0.222498756977     0.042657397224    12.000000000000
         N            0.338882519744    -0.397598756977     0.798457397224    14.003074004430
         C            1.579082519744     0.077601243023     0.323657397224    12.000000000000
         C            2.788182519744    -0.083698756977     1.285657397224    12.000000000000
         C            0.207282519744    -1.002398756977     2.127057397224    12.000000000000
         O            1.749782519744     0.632901243023    -0.766542602776    15.994914619570
         C           -2.132417480256    -0.211898756977     0.683757397224    12.000000000000
         C           -3.319117480256     0.135001243023    -1.416742602776    12.000000000000
         C           -3.327817480256    -0.047798756977    -0.033742602776    12.000000000000
         C           -2.083117480256     0.081601243023    -2.066042602776    12.000000000000
         C           -0.887717480256    -0.084298756977    -1.349742602776    12.000000000000
         H            1.133082519744    -1.485498756977     2.445157397224     1.007825032230
         H           -0.556017480256    -1.787198756977     2.122157397224     1.007825032230
         H           -0.046117480256    -0.219998756977     2.848957397224     1.007825032230
         N            3.980482519744     0.630301243023     0.779557397224    14.003074004430
         H            3.009682519744    -1.156598756977     1.328957397224     1.007825032230
         H            2.532282519744     0.283401243023     2.285257397224     1.007825032230
         H           -2.223117480256    -0.303298756977     1.761657397224     1.007825032230
         H           -4.264417480256    -0.053198756977     0.515457397224     1.007825032230
         H           -2.032117480256     0.163001243023    -3.149142602776     1.007825032230
         H            0.024882519744    -0.141398756977    -1.934342602776     1.007825032230
         N           -4.498317480256     0.223501243023    -2.195842602776    14.003074004430
         C            5.233682519744     0.179101243023     1.401057397224    12.000000000000
         H           -4.310117480256     0.728201243023    -3.060942602776     1.007825032230
         H            5.482582519744    -0.806698756977     0.989957397224     1.007825032230
         H            5.113782519744     0.050001243023     2.484357397224     1.007825032230
         H            3.865782519744     1.626301243023     0.967457397224     1.007825032230
         H           -5.372917480256    -0.148498756977    -1.939042602776     1.007825032230
         H            5.990582519744     0.909801243023     1.206057397224     1.007825032230

  Charge       = 0
  Multiplicity = 1
  Basis Set: MINIX
    Blend: MINIX
  Basis Set: (MINIX AUX)
    Blend: DEF2-UNIVERSAL-JKFIT

    Orbital Energies [Eh]
    ---------------------

    Doubly Occupied:

       1A    -20.289763     2A    -15.441818     3A    -15.374925
       4A    -15.372264     5A    -11.310198     6A    -11.219658
       7A    -11.214620     8A    -11.212030     9A    -11.206999
      10A    -11.181193    11A    -11.165213    12A    -11.161138
      13A    -11.156019    14A    -11.152901    15A     -1.362936
      16A     -1.234223    17A     -1.191456    18A     -1.188775
      19A     -1.109886    20A     -1.007144    21A     -0.998446
      22A     -0.973011    23A     -0.939374    24A     -0.872907
      25A     -0.826783    26A     -0.805851    27A     -0.743636
      28A     -0.694887    29A     -0.677822    30A     -0.669512
      31A     -0.657800    32A     -0.644391    33A     -0.638828
      34A     -0.611630    35A     -0.599660    36A     -0.591229
      37A     -0.572248    38A     -0.569085    39A     -0.554030
      40A     -0.541865    41A     -0.530854    42A     -0.527327
      43A     -0.513759    44A     -0.507766    45A     -0.500065
      46A     -0.477694    47A     -0.437081    48A     -0.382994
      49A     -0.368359    50A     -0.350532    51A     -0.337521
      52A     -0.269816

  @DF-RHF Final Energy:  -621.30262582592411

   => Energetics <=

    Nuclear Repulsion Energy =            861.7738961089947907
    One-Electron Energy =               -2556.2732459798471609
    Two-Electron Energy =                1073.1967240449282599
    Total Energy =                       -621.3026258259239967
 Dipole X            :         -8.3723698            7.8347706           -0.5375992
 Dipole Y            :          1.7398817           -2.1935388           -0.4536571
 Dipole Z            :         -6.8864125            8.3153039            1.4288914
 Magnitude           :                                                    1.5926544

  Mulliken Charges: (a.u.)
   Center  Symbol    Alpha    Beta     Spin     Total
       1     C     2.95960  2.95960  0.00000  0.08080
       2     N     3.66094  3.66094  0.00000 -0.32187
       3     C     2.80354  2.80354  0.00000  0.39292
       4     C     3.07751  3.07751  0.00000 -0.15501
       5     C     3.12304  3.12304  0.00000 -0.24607
       6     O     4.20346  4.20346  0.00000 -0.40692
       7     C     3.07187  3.07187  0.00000 -0.14374
       8     C     2.95218  2.95218  0.00000  0.09564
       9     C     3.07950  3.07950  0.00000 -0.15901
      10     C     3.07730  3.07730  0.00000 -0.15461
      11     C     3.06535  3.06535  0.00000 -0.13071
      12     H     0.43114  0.43114  0.00000  0.13771
      13     H     0.42675  0.42675  0.00000  0.14651
      14     H     0.43408  0.43408  0.00000  0.13185
      15     N     3.69407  3.69407  0.00000 -0.38813
      16     H     0.42927  0.42927  0.00000  0.14147
      17     H     0.43823  0.43823  0.00000  0.12353
      18     H     0.43338  0.43338  0.00000  0.13325
      19     H     0.43406  0.43406  0.00000  0.13188
      20     H     0.43380  0.43380  0.00000  0.13239
      21     H     0.41533  0.41533  0.00000  0.16935
      22     N     3.75929  3.75929  0.00000 -0.51858
      23     C     3.13351  3.13351  0.00000 -0.26702
      24     H     0.38057  0.38057  0.00000  0.23887
      25     H     0.43410  0.43410  0.00000  0.13180
      26     H     0.44554  0.44554  0.00000  0.10891
      27     H     0.39384  0.39384  0.00000  0.21232
      28     H     0.37623  0.37623  0.00000  0.24754
      29     H     0.43254  0.43254  0.00000  0.13493

   Total alpha = 52.00000, Total beta = 52.00000, Total charge = -0.00000

  Basis Set: MINIX
    Blend: MINIX
*** Psi4 exiting successfully. Buy a developer a beer!
