                               Psi4 1.6 release

  ==> Input File <==

--------------------------------------------------------------------------
molecule {
0 1
 N   -1.869500   -0.604800   -2.056000
 C   -3.132000   -0.308900   -1.556000
 C   -4.064500   -1.440900   -1.761700
 C   -4.891400   -1.471400   -2.894900
 C   -3.569300    0.849600   -1.009400
 C   -4.118300   -2.500300   -0.845900
 H   -1.681300   -0.100100   -2.921100
 C   -4.889100    1.211400   -0.436900
 N   -3.522500    3.048500   -0.304000
 C   -2.710400    2.097600   -0.897300
 C   -4.787200    2.548300   -0.037000
 C   -5.004600   -3.560200   -1.046900
 C   -5.776500   -2.532600   -3.092600
 C   -5.835000   -3.573300   -2.166800
 H   -3.471500   -2.506000    0.026600
 H   -4.853100   -0.667500   -3.625700
 H   -3.205200    3.987900   -0.120200
 O   -1.565700    2.293500   -1.257500
 H   -5.048000   -4.376200   -0.330300
 H   -6.421300   -2.548000   -3.967600
 H   -6.527600   -4.397500   -2.319600
 H   -5.716000    0.600000   -0.350900
 H   -5.550900    3.089100    0.398200
 H   -1.206600   -1.253400   -1.608000
}
set {
  geom_maxiter 400
  g_convergence GAU_LOOSE
  dynamic_level 1
}
geometric_keywords = {
 'coordsys' : 'tric',
 'convergence_cmax' : 1e0,
 'convergence_set' : 'GAU_LOOSE',
 'convergence_energy' : 1e-4,
}
memory 20GB
set_num_threads(5)
psi4_io.set_default_path("/scratch/liuchw/Psi4-7_11_Index_0-farH_in17")
basis {
assign 6-31G*
}
opt_finished = False
if not opt_finished:
    try:
        ener, opt_hist = optimize('mp2',engine='geometric',optimizer_keywords=geometric_keywords, return_history=True)
        opt_finished = len(opt_hist['energy']) < 400
    except Exception as e:
        core.print_out('Exception: %s'%(e))
if not opt_finished:
    try:
        optimize('mp2')
    except:
        set opt_coordinates both
        optimize('mp2')
    opt_finished = True
clean()
assert opt_finished

--------------------------------------------------------------------------

    Molecular point group: c1
  Charge       = 0
  Multiplicity = 1
  Basis Set: ANONYMOUS8015A26E
    Blend: 6-31G*
  Basis Set: (ANONYMOUS8015A26E AUX)
    Blend: CC-PVDZ-JKFIT
  @DF-RHF Final Energy:  -606.07780553164821
    Total Energy =                       -606.0778055316482096
 Dipole X            :          3.1089855           -4.1728968           -1.0639113
 Dipole Y            :          5.4037326           -5.5662266           -0.1624940
 Dipole Z            :          1.2152767           -0.9428474            0.2724293
 Magnitude           :                                                    1.1101933
  Basis Set: (ANONYMOUS8015A26E AUX)
    Blend: CC-PVDZ-RI
    Molecular point group: c1
  Basis Set: ANONYMOUS8015A26E
    Blend: 6-31G*
  Basis Set: (ANONYMOUS8015A26E AUX)
    Blend: CC-PVDZ-JKFIT
  Basis Set: (ANONYMOUS8015A26E AUX)
    Blend: CC-PVDZ-JKFIT
	 Reference Energy          =    -606.0778055316482096 [Eh]
	 Singles Energy            =      -0.0000000000000000 [Eh]
	 Same-Spin Energy          =      -0.5277531906058187 [Eh]
	 Opposite-Spin Energy      =      -1.4273402755625091 [Eh]
	 Correlation Energy        =      -1.9550934661683277 [Eh]
	 Total Energy              =    -608.0328989978165737 [Eh]
	 SCS Total Energy          =    -607.9665315925251434 [Eh]
  @DF-RHF Final Energy:  -606.08959111980107
    Total Energy =                       -606.0895911198010708
  @DF-RHF Final Energy:  -606.10000838269718
    Total Energy =                       -606.1000083826971832
  @DF-RHF Final Energy:  -606.11146474138627
    Total Energy =                       -606.1114647413862713
  @DF-RHF Final Energy:  -606.11374212409737
    Total Energy =                       -606.1137421240973708
  @DF-RHF Final Energy:  -606.11264614560628
    Total Energy =                       -606.1126461456062771
  @DF-RHF Final Energy:  -606.12117684931525
    Total Energy =                       -606.1211768493152476
  @DF-RHF Final Energy:  -606.12272809911963
    Total Energy =                       -606.1227280991196267
  @DF-RHF Final Energy:  -606.12540045182357
    Total Energy =                       -606.1254004518235661
  @DF-RHF Final Energy:  -606.12407752920740
    Total Energy =                       -606.1240775292073977
  @DF-RHF Final Energy:  -606.12627128945633
    Total Energy =                       -606.1262712894563265
  @DF-RHF Final Energy:  -606.12611479993302
    Total Energy =                       -606.1261147999330205
  @DF-RHF Final Energy:  -606.12628434774206
    Total Energy =                       -606.1262843477420574
  @DF-RHF Final Energy:  -606.12644646515844
    Total Energy =                       -606.1264464651584376
  @DF-RHF Final Energy:  -606.12668427821518
    Total Energy =                       -606.1266842782151798
  @DF-RHF Final Energy:  -606.12672868052255
    Total Energy =                       -606.1267286805225467
  @DF-RHF Final Energy:  -606.12685053507346
    Total Energy =                       -606.1268505350734586
  @DF-RHF Final Energy:  -606.12671542957492
    Total Energy =                       -606.1267154295749151
  @DF-RHF Final Energy:  -606.12721327355894
    Total Energy =                       -606.1272132735589366
  @DF-RHF Final Energy:  -606.12780961955320
    Total Energy =                       -606.1278096195532044
  @DF-RHF Final Energy:  -606.12761797003725
    Total Energy =                       -606.1276179700372495
  @DF-RHF Final Energy:  -606.12750910746161
    Total Energy =                       -606.1275091074616057
  @DF-RHF Final Energy:  -606.12780511877259
    Total Energy =                       -606.1278051187725850
  @DF-RHF Final Energy:  -606.12798495265372
    Total Energy =                       -606.1279849526537191
  @DF-RHF Final Energy:  -606.10062981382316
    Total Energy =                       -606.1006298138231614
  @DF-RHF Final Energy:  -606.12651336726015
    Total Energy =                       -606.1265133672601451
  @DF-RHF Final Energy:  -606.12664752040678
    Total Energy =                       -606.1266475204067774
  @DF-RHF Final Energy:  -606.12826011339814
    Total Energy =                       -606.1282601133981416
  @DF-RHF Final Energy:  -606.12846010465682
    Total Energy =                       -606.1284601046568241
  @DF-RHF Final Energy:  -606.12879311031475
    Total Energy =                       -606.1287931103147457
  @DF-RHF Final Energy:  -606.12869309414009
    Total Energy =                       -606.1286930941400897
  @DF-RHF Final Energy:  -606.12874511294467
    Total Energy =                       -606.1287451129446708
  @DF-RHF Final Energy:  -606.12876603737709
    Total Energy =                       -606.1287660373770905
  Charge       = 0
  Multiplicity = 1
  Basis Set: ANONYMOUS8015A26E
    Blend: 6-31G*
  Basis Set: (ANONYMOUS8015A26E AUX)
    Blend: CC-PVDZ-JKFIT

    Orbital Energies [Eh]
    ---------------------

    Doubly Occupied:

       1A    -20.506669     2A    -15.588369     3A    -15.577848
       4A    -11.334860     5A    -11.313442     6A    -11.262168
       7A    -11.259161     8A    -11.253191     9A    -11.252838
      10A    -11.252493    11A    -11.249592    12A    -11.249295
      13A    -11.219365    14A    -11.212695    15A     -1.350810
      16A     -1.251272    17A     -1.241518    18A     -1.161311
      19A     -1.066020    20A     -1.033217    21A     -1.026205
      22A     -0.967671    23A     -0.892327    24A     -0.841612
      25A     -0.824576    26A     -0.786583    27A     -0.757016
      28A     -0.713502    29A     -0.689607    30A     -0.679137
      31A     -0.656675    32A     -0.637955    33A     -0.621438
      34A     -0.599866    35A     -0.587136    36A     -0.584842
      37A     -0.580626    38A     -0.571205    39A     -0.545992
      40A     -0.521302    41A     -0.511615    42A     -0.504784
      43A     -0.487482    44A     -0.452436    45A     -0.400799
      46A     -0.365571    47A     -0.347384    48A     -0.346245
      49A     -0.259634

  @DF-RHF Final Energy:  -606.12875139559810

   => Energetics <=

    Nuclear Repulsion Energy =            816.9059220658288041
    One-Electron Energy =               -2445.2746283352225873
    Two-Electron Energy =                1022.2399548737957957
    Total Energy =                       -606.1287513955981012
 Dipole X            :          2.8252932           -4.0310546           -1.2057614
 Dipole Y            :          9.4276054          -10.3097203           -0.8821149
 Dipole Z            :         -2.0995974            1.7245455           -0.3750519
 Magnitude           :                                                    1.5403412
  Basis Set: (ANONYMOUS8015A26E AUX)
    Blend: CC-PVDZ-RI
    Molecular point group: c1
  Basis Set: ANONYMOUS8015A26E
    Blend: 6-31G*
  Basis Set: (ANONYMOUS8015A26E AUX)
    Blend: CC-PVDZ-JKFIT
  Basis Set: (ANONYMOUS8015A26E AUX)
    Blend: CC-PVDZ-JKFIT
	 Reference Energy          =    -606.1287513955981012 [Eh]
	 Singles Energy            =      -0.0000000000000000 [Eh]
	 Same-Spin Energy          =      -0.5327330734822249 [Eh]
	 Opposite-Spin Energy      =      -1.4284508445901585 [Eh]
	 Correlation Energy        =      -1.9611839180723833 [Eh]
	 Total Energy              =    -608.0899353136704804 [Eh]

	 ================> DF-SCS-MP2 Energies <==================
	-----------------------------------------------------------
	 SCS Same-Spin Scale       =       0.3333333333333333 [-]
	 SCS Opposite-Spin Scale   =       1.2000000000000000 [-]
	 SCS Same-Spin Energy      =      -0.1775776911607416 [Eh]
	 SCS Opposite-Spin Energy  =      -1.7141410135081900 [Eh]
	 SCS Correlation Energy    =      -1.8917187046689317 [Eh]
	 SCS Total Energy          =    -608.0204701002670618 [Eh]
	-----------------------------------------------------------

  -Total Gradient:
     Atom            X                  Y                   Z
    ------   -----------------  -----------------  -----------------
       1       -0.000012420067     0.000014119966     0.000023354697
       2       -0.000002592938    -0.000012646305     0.000156048845
       3       -0.000008488721    -0.000012911128     0.000002639169
       4       -0.000015407109     0.000011591978    -0.000036010761
       5       -0.000043162152     0.000131545998    -0.000293185455
       6       -0.000005878353    -0.000013094343    -0.000005287684
       7        0.000019513784    -0.000009046282    -0.000015729955
       8       -0.000056739162    -0.000035311236     0.000168929859
       9        0.000012101738    -0.000045272973     0.000054755762
      10        0.000032059206     0.000018882975     0.000047718925
      11        0.000021735065    -0.000042553189    -0.000026402458
      12        0.000004543526     0.000008396876     0.000005895602
      13        0.000018083135     0.000006567306     0.000039283252
      14       -0.000002832938    -0.000011221379    -0.000012510717
      15        0.000001134511    -0.000004033201    -0.000003827864
      16        0.000003007728    -0.000003998192    -0.000002077697
      17       -0.000000442255    -0.000002341406    -0.000033655850
      18        0.000032368374    -0.000008644171    -0.000001953861
      19       -0.000001812368     0.000000021134    -0.000000045539
      20        0.000007457967    -0.000002001523    -0.000004290018
      21       -0.000000997830    -0.000001537594     0.000003636032
      22       -0.000010472019     0.000012456006    -0.000054321079
      23        0.000000542318    -0.000006332613     0.000005409507
      24        0.000008698561     0.000007363301    -0.000018372713

    Molecular point group: c1

    Geometry (in Angstrom), charge = 0, multiplicity = 1:

    N            2.077115682868    -0.433338023487    -0.064858282754
    C            0.746192281613    -0.150438337917    -0.010395602457
    C           -0.173591368335    -1.269453410915    -0.281188687113
    C           -1.299796199235    -1.085255901038    -1.095675670077
    C            0.306802271471     1.100575274823     0.359305218399
    C            0.095467474356    -2.539206177369     0.250253080192
    H            2.693457963347     0.381257761331     0.009369342740
    C           -1.025215388283     1.592372047341     0.631415843203
    N            0.420748872827     3.313801332929     0.778482881929
    C            1.232740920614     2.233382738619     0.486455390867
    C           -0.914833086692     2.922875050345     0.889915791937
    C           -0.762311389415    -3.604118836514    -0.016142410443
    C           -2.150572770000    -2.155983037070    -1.360999781174
    C           -1.885666287197    -3.416390358453    -0.822665638291
    H            0.960022806469    -2.673378291661     0.895759617355
    H           -1.487847869554    -0.108069891367    -1.532088516310
    H            0.791815226843     4.237882552445     0.955329986979
    O            2.472743270541     2.268906941056     0.358373155075
    H           -0.556013329795    -4.582720260406     0.410047800945
    H           -3.017820329190    -2.009342455020    -1.999925674438
    H           -2.552569506206    -4.249111075645    -1.030735970145
    H           -1.936452463013     1.012270761886     0.675063887971
    H           -1.677094563213     3.643827091836     1.153355201095
    H            2.367063021519    -1.192938228691    -0.667608123234

*** Psi4 exiting successfully. Buy a developer a beer!
