   * xtb version 6.5.0 (97a52f5) compiled by 'conda@d2599ee0d4f4' on 2022-05-15
          program call               : /home/liuchw/anaconda3/envs/xtbenv/bin/xtb --gfn 2 --chrg 0 --uhf 0 1_7_Index_0-opt-2-3-046_preQMOPTprefit_xyzformat.xyz --opt --input xtb-opt-2-3-046_constr.txt

   ID    Z sym.   atoms
    1    1 H      1, 21, 23-34
    2    7 N      2, 8
    3    6 C      3-7, 9-20
    4    8 O      22
constraining angle 1 2 3 4 to   45.7925094°, actual value:   45.7925094°
constraining angle 5 2 3 4 to  183.2500282°, actual value: -176.7499718°
constraining angle 1 2 5 17 to  332.0312971°, actual value:  -27.9687029°
constraining angle 3 2 5 17 to  195.1095936°, actual value: -164.8904064°
constraining angle 2 3 4 12 to  262.1273640°, actual value:  -97.8726360°
constraining angle 2 3 6 7 to  183.2470195°, actual value: -176.7529805°

          :  Hamiltonian                  GFN2-xTB          :
 * total energy  :   -53.3964605 Eh     change       -0.1023004E-08 Eh
 * total energy  :   -53.4121615 Eh     change       -0.1570102E-01 Eh
 * total energy  :   -53.4166697 Eh     change       -0.4508241E-02 Eh
 * total energy  :   -53.4179849 Eh     change       -0.1315150E-02 Eh
 * total energy  :   -53.4184464 Eh     change       -0.4615391E-03 Eh
 * total energy  :   -53.4187978 Eh     change       -0.3513195E-03 Eh
 * total energy  :   -53.4192099 Eh     change       -0.4121820E-03 Eh
 * total energy  :   -53.4196046 Eh     change       -0.3946511E-03 Eh
 * total energy  :   -53.4199840 Eh     change       -0.3793795E-03 Eh
 * total energy  :   -53.4203210 Eh     change       -0.3370144E-03 Eh
 * total energy  :   -53.4205332 Eh     change       -0.2121817E-03 Eh
 * total energy  :   -53.4206305 Eh     change       -0.9738576E-04 Eh
 * total energy  :   -53.4206927 Eh     change       -0.6214615E-04 Eh
 * total energy  :   -53.4207151 Eh     change       -0.2237367E-04 Eh
 * total energy  :   -53.4207273 Eh     change       -0.1226786E-04 Eh
 * total energy  :   -53.4207333 Eh     change       -0.5914198E-05 Eh
 * total energy  :   -53.4207364 Eh     change       -0.3141082E-05 Eh
 * total energy  :   -53.4207381 Eh     change       -0.1703120E-05 Eh
   *** GEOMETRY OPTIMIZATION CONVERGED AFTER 18 ITERATIONS ***

 final structure:
================
34
 xtb: 6.5.0 (97a52f5)
H            0.77860207309649       -1.12322453036801       -1.28627036787616
N            0.77801798454902       -0.84822770529111       -0.30821648971841
C           -0.46135735309360       -0.33695339705598        0.01010390195169
C           -1.55513199626477       -1.19988830666419       -0.51884406743710
C            2.02991553916389       -0.35475375982858        0.07108054205344
C           -0.81132088783781        0.87170581383104        0.54255737166974
C           -2.16724390291856        1.24112756729735        0.88765208412309
N           -0.90962539225827        3.07184577407140        1.06511925971039
C           -0.02217206014413        2.11488487217281        0.62848100330059
C           -2.17674159717131        2.54537667869809        1.21452681199585
C           -1.92587661726821       -2.36684599580405        0.13800687394457
C           -2.17299262769011       -0.86327294093703       -1.71755182899564
C           -2.92173119372382       -3.17310264714880       -0.38466329161006
C           -3.16324216126963       -1.67496563126714       -2.24099909458097
C           -3.54081223940652       -2.82890562713784       -1.57448708583067
C            2.23281728049857        0.27368971766879        1.30052557230156
C            3.14458979579619       -0.83000764177527       -0.62006105885931
C            3.51322076694623        0.57404056137305        1.72365726747346
C            4.42164665742789       -0.51728215197460       -0.19914843196791
C            4.61176090276483        0.20473069183395        0.96719670778853
H           -0.65648109747354        4.03570031903708        1.20219605816712
O            1.12376665109479        2.35515150399488        0.28857411637234
H           -1.43755807288521       -2.63176262831274        1.06418872379326
H           -1.88051602698832        0.04257746668358       -2.22927164484053
H           -3.21303648845510       -4.07333070809698        0.13610910677267
H           -3.64079484433642       -1.40671963961843       -3.17185083590895
H           -4.31629163410180       -3.45950953662150       -1.98335045429866
H            1.39266942281177        0.49564456632654        1.93730168362330
H            3.00133281404139       -1.40075050477243       -1.52869344325389
H            3.65267014725051        1.08807479503323        2.66307922375321
H            5.27151453864984       -0.85986063126607       -0.77131101199288
H           -2.99606899389132        0.56203335820688        0.91804381567197
H           -2.98978556038938        3.16636977992346        1.53967201321877
H            5.60965018347618        0.44940851778905        1.29870496948742

          :  Hamiltonian                  GFN2-xTB          :
         :: total energy             -53.420738096040 Eh    ::
         :: gradient norm              0.000645861698 Eh/a0 ::
         :: HOMO-LUMO gap              2.235051463352 eV    ::
         :: SCC energy               -54.342785097241 Eh    ::
         :: -> dispersion             -0.039148775936 Eh    ::
         :: repulsion energy           0.921779617668 Eh    ::

    * Orbital Energies and Occupations

         #    Occupation            Energy/Eh            Energy/eV
      -------------------------------------------------------------
         1        2.0000           -0.6838443             -18.6084
       ...           ...                  ...                  ...
        37        2.0000           -0.4556964             -12.4001
        38        2.0000           -0.4494870             -12.2312
        39        2.0000           -0.4369680             -11.8905
        40        2.0000           -0.4336520             -11.8003
        41        2.0000           -0.4255616             -11.5801
        42        2.0000           -0.4166102             -11.3365
        43        2.0000           -0.4156076             -11.3093
        44        2.0000           -0.4146718             -11.2838
        45        2.0000           -0.4105135             -11.1706
        46        2.0000           -0.3936618             -10.7121
        47        2.0000           -0.3840757             -10.4512
        48        2.0000           -0.3697117             -10.0604
        49        2.0000           -0.3510798              -9.5534 (HOMO)
        50                         -0.2689432              -7.3183 (LUMO)
        51                         -0.2343657              -6.3774
        52                         -0.2338339              -6.3629
        53                         -0.2107128              -5.7338
        54                         -0.2028141              -5.5189
        55                         -0.1687962              -4.5932
        56                         -0.1249113              -3.3990
        57                         -0.1040518              -2.8314
        58                         -0.0793831              -2.1601
        59                          0.0309290               0.8416
        60                          0.0417474               1.1360
       ...                                ...                  ...
        94                          0.7488082              20.3761
      -------------------------------------------------------------
                  HL-Gap            0.0821366 Eh            2.2351 eV

     #   Z          covCN         q      C6AA      α(0)
     1   1 H        0.860     0.179     1.220     1.731
     2   7 N        2.700    -0.139    24.006     7.277
     3   6 C        2.887     0.076    26.301     8.408
     4   6 C        2.989     0.004    27.919     8.667
     5   6 C        2.903     0.076    26.304     8.409
     6   6 C        3.068    -0.057    29.332     8.881
     7   6 C        2.987    -0.075    29.854     8.963
     8   7 N        2.776    -0.152    24.275     7.318
     9   6 C        2.855     0.265    22.540     7.781
    10   6 C        2.969     0.008    27.831     8.653
    11   6 C        2.923    -0.030    28.740     8.791
    12   6 C        2.924    -0.032    28.797     8.800
    13   6 C        2.919    -0.028    28.694     8.784
    14   6 C        2.919    -0.028    28.692     8.784
    15   6 C        2.920    -0.029    28.725     8.789
    16   6 C        2.923    -0.024    28.606     8.771
    17   6 C        2.929    -0.052    29.302     8.877
    18   6 C        2.920    -0.024    28.609     8.771
    19   6 C        2.919    -0.029    28.724     8.789
    20   6 C        2.920    -0.035    28.870     8.811
    21   1 H        0.860     0.170     1.271     1.766
    22   8 O        0.857    -0.449    22.680     6.385
    23   1 H        0.926     0.038     2.469     2.457
    24   1 H        0.926     0.033     2.542     2.493
    25   1 H        0.926     0.036     2.497     2.471
    26   1 H        0.926     0.036     2.502     2.474
    27   1 H        0.926     0.035     2.514     2.479
    28   1 H        0.926     0.039     2.460     2.453
    29   1 H        0.925     0.022     2.699     2.569
    30   1 H        0.926     0.034     2.526     2.485
    31   1 H        0.926     0.031     2.578     2.511
    32   1 H        0.926     0.030     2.581     2.512
    33   1 H        0.926     0.036     2.509     2.477
    34   1 H        0.926     0.031     2.573     2.509

Wiberg/Mayer (AO) data.
largest (>0.10) Wiberg bond orders for each atom

     #   Z sym  total        # sym  WBO       # sym  WBO       # sym  WBO
 ---------------------------------------------------------------------------
     1   1 H    0.965 --     2 N    0.920
     2   7 N    3.448 --     3 C    1.174     5 C    1.086     1 H    0.920
     3   6 C    3.969 --     6 C    1.526     2 N    1.174     4 C    0.994
     4   6 C    3.988 --    11 C    1.407    12 C    1.402     3 C    0.994
                            15 C    0.110
     5   6 C    3.962 --    17 C    1.362    16 C    1.356     2 N    1.086
     6   6 C    3.966 --     3 C    1.526     7 C    1.144     9 C    1.041
     7   6 C    3.976 --    10 C    1.697     6 C    1.144    32 H    0.971
     8   7 N    3.504 --     9 C    1.152    10 C    1.136    21 H    0.942
                            22 O    0.143
     9   6 C    3.949 --    22 O    1.630     8 N    1.152     6 C    1.041
    10   6 C    3.946 --     7 C    1.697     8 N    1.136    33 H    0.969
    11   6 C    3.988 --    13 C    1.443     4 C    1.407    23 H    0.970
                            14 C    0.112
    12   6 C    3.990 --    14 C    1.445     4 C    1.402    24 H    0.970
                            13 C    0.112
    13   6 C    3.991 --    11 C    1.443    15 C    1.440    25 H    0.970
                            12 C    0.112
    14   6 C    3.991 --    12 C    1.445    15 C    1.438    26 H    0.970
                            11 C    0.112
    15   6 C    3.990 --    13 C    1.440    14 C    1.438    27 H    0.971
                             4 C    0.110
    16   6 C    3.991 --    18 C    1.450     5 C    1.356    28 H    0.967
                            19 C    0.104
    17   6 C    3.983 --    19 C    1.458     5 C    1.362    29 H    0.967
                            18 C    0.104
    18   6 C    3.992 --    16 C    1.450    20 C    1.434    30 H    0.971
                            17 C    0.104
    19   6 C    3.991 --    17 C    1.458    20 C    1.426    31 H    0.971
                            16 C    0.104
    20   6 C    3.980 --    18 C    1.434    19 C    1.426    34 H    0.972
    21   1 H    0.970 --     8 N    0.942
    22   8 O    2.004 --     9 C    1.630     8 N    0.143
    23   1 H    0.998 --    11 C    0.970
    24   1 H    0.999 --    12 C    0.970
    25   1 H    0.998 --    13 C    0.970
    26   1 H    0.998 --    14 C    0.970
    27   1 H    0.998 --    15 C    0.971
    28   1 H    0.998 --    16 C    0.967
    29   1 H    0.999 --    17 C    0.967
    30   1 H    0.998 --    18 C    0.971
    31   1 H    0.999 --    19 C    0.971
    32   1 H    0.999 --     7 C    0.971
    33   1 H    0.998 --    10 C    0.969
    34   1 H    0.999 --    20 C    0.972
 ---------------------------------------------------------------------------

molecular dipole:
                 x           y           z       tot (Debye)
 q only:       -0.906      -0.888      -0.131
   full:       -1.140      -0.608      -0.225       3.333

           -------------------------------------------------
          | TOTAL ENERGY              -53.420738096040 Eh   |
          | GRADIENT NORM               0.000645861698 Eh/α |
          | HOMO-LUMO GAP               2.235051463352 eV   |
           -------------------------------------------------

 * finished run on 2023/11/18 at 09:08:59.526
