   * xtb version 6.5.0 (97a52f5) compiled by 'conda@d2599ee0d4f4' on 2022-05-15
          program call               : /home/liuchw/anaconda3/envs/xtbenv/bin/xtb --gfn 2 --chrg 0 --uhf 0 1_7_Index_0-opt-2-3-226_preQMOPTprefit_xyzformat.xyz --opt --input xtb-opt-2-3-226_constr.txt

   ID    Z sym.   atoms
    1    1 H      1, 21, 23-34
    2    7 N      2, 8
    3    6 C      3-7, 9-20
    4    8 O      22
constraining angle 1 2 3 4 to  225.7811871°, actual value: -134.2188129°
constraining angle 5 2 3 4 to    2.9907622°, actual value:    2.9907622°
constraining angle 1 2 5 17 to  332.1161014°, actual value:  -27.8838986°
constraining angle 3 2 5 17 to  194.9516887°, actual value: -165.0483113°
constraining angle 2 3 4 12 to  261.8610325°, actual value:  -98.1389675°
constraining angle 2 3 6 7 to  182.9255683°, actual value: -177.0744317°

          :  Hamiltonian                  GFN2-xTB          :
 * total energy  :   -53.4102564 Eh     change       -0.1917115E-08 Eh
 * total energy  :   -53.4268050 Eh     change       -0.1654860E-01 Eh
 * total energy  :   -53.4311368 Eh     change       -0.4331737E-02 Eh
 * total energy  :   -53.4299728 Eh     change        0.1164022E-02 Eh
 * total energy  :   -53.4330814 Eh     change       -0.3108597E-02 Eh
 * total energy  :   -53.4333600 Eh     change       -0.2786065E-03 Eh
 * total energy  :   -53.4335832 Eh     change       -0.2232422E-03 Eh
 * total energy  :   -53.4336789 Eh     change       -0.9572103E-04 Eh
 * total energy  :   -53.4337529 Eh     change       -0.7400956E-04 Eh
 * total energy  :   -53.4337970 Eh     change       -0.4409496E-04 Eh
 * total energy  :   -53.4338228 Eh     change       -0.2574874E-04 Eh
 * total energy  :   -53.4338422 Eh     change       -0.1942932E-04 Eh
 * total energy  :   -53.4338487 Eh     change       -0.6522753E-05 Eh
 * total energy  :   -53.4338591 Eh     change       -0.1035049E-04 Eh
 * total energy  :   -53.4338619 Eh     change       -0.2819090E-05 Eh
 * total energy  :   -53.4338668 Eh     change       -0.4947952E-05 Eh
 * total energy  :   -53.4338686 Eh     change       -0.1713526E-05 Eh
   *** GEOMETRY OPTIMIZATION CONVERGED AFTER 17 ITERATIONS ***

 final structure:
================
34
 xtb: 6.5.0 (97a52f5)
H            1.16964649595826        1.56763780406434        0.39516828769474
N            0.95501158471295        0.76108380032473       -0.20081155667002
C           -0.39922206003424        0.61390510663672       -0.28988943965449
C           -1.10299744151391       -0.68344737358094       -0.15118459780217
C            1.92706394378891       -0.22629470391317       -0.02975016975727
C           -1.16924747926809        1.75067159050002       -0.26843596530340
C           -2.60273780601111        1.88223798870480       -0.29005068251599
N           -1.73048596233739        3.90066972050703        0.11605992920683
C           -0.63679384894142        3.08349626174000        0.02296735456505
C           -2.89604170408865        3.17993075358155       -0.08108753721668
C           -1.37967806051776       -1.14608574609281        1.12970566687724
C           -1.50814409019882       -1.42986519781525       -1.25333320627461
C           -2.05523426127098       -2.34103155515670        1.30312843590112
C           -2.18649091524040       -2.62209704565121       -1.07428705793121
C           -2.45820482985075       -3.08065282625354        0.20427243431639
C            1.76882433840414       -1.57635148347951       -0.33657072355088
C            3.19583395378691        0.22646625015622        0.34925369497971
C            2.83399760168627       -2.44930193026829       -0.20037362155378
C            4.25160592422040       -0.65053684914937        0.48036520912391
C            4.07492182807424       -1.99915654451487        0.21218174087515
H           -1.68255027267665        4.88694361051485        0.30891644813461
O            0.52327339212132        3.41853202320309        0.24631196524207
H           -1.06609949072908       -0.56720759418354        1.98620852550594
H           -1.29190934292344       -1.06672822067628       -2.24755240592896
H           -2.26716169909913       -2.69523903455174        2.30100447779594
H           -2.49940480595572       -3.19641933926646       -1.93380938420559
H           -2.98426830634563       -4.01330343558508        0.34373549837704
H            0.82270813012478       -1.95640800509750       -0.68041062429398
H            3.33373160770252        1.27883393640587        0.55299581517851
H            2.68705743227236       -3.49461428372053       -0.42946506004830
H            5.21958948050663       -0.28086679818893        0.78470520494949
H           -3.29378716210312        1.08442847159691       -0.47658112853895
H           -3.84896185060220        3.67187380186833       -0.04467079194965
H            4.89954967634943       -2.68810416265957        0.31334225447284

          :  Hamiltonian                  GFN2-xTB          :
         :: total energy             -53.433868563082 Eh    ::
         :: gradient norm              0.000541368337 Eh/a0 ::
         :: HOMO-LUMO gap              2.210229741355 eV    ::
         :: SCC energy               -54.355831414377 Eh    ::
         :: -> dispersion             -0.039103663185 Eh    ::
         :: repulsion energy           0.921566213011 Eh    ::

    * Orbital Energies and Occupations

         #    Occupation            Energy/Eh            Energy/eV
      -------------------------------------------------------------
         1        2.0000           -0.6852638             -18.6470
       ...           ...                  ...                  ...
        37        2.0000           -0.4600346             -12.5182
        38        2.0000           -0.4567402             -12.4285
        39        2.0000           -0.4373090             -11.8998
        40        2.0000           -0.4365756             -11.8798
        41        2.0000           -0.4335009             -11.7962
        42        2.0000           -0.4260994             -11.5948
        43        2.0000           -0.4192312             -11.4079
        44        2.0000           -0.4153774             -11.3030
        45        2.0000           -0.4077531             -11.0955
        46        2.0000           -0.4046332             -11.0106
        47        2.0000           -0.3864541             -10.5160
        48        2.0000           -0.3803407             -10.3496
        49        2.0000           -0.3504819              -9.5371 (HOMO)
        50                         -0.2692574              -7.3269 (LUMO)
        51                         -0.2362047              -6.4275
        52                         -0.2344177              -6.3788
        53                         -0.2229740              -6.0674
        54                         -0.2087954              -5.6816
        55                         -0.1705395              -4.6406
        56                         -0.1214292              -3.3043
        57                         -0.1060937              -2.8870
        58                         -0.0886449              -2.4122
        59                          0.0303041               0.8246
        60                          0.0402652               1.0957
       ...                                ...                  ...
        94                          0.7299990              19.8643
      -------------------------------------------------------------
                  HL-Gap            0.0812244 Eh            2.2102 eV

     #   Z          covCN         q      C6AA      α(0)
     1   1 H        0.859     0.224     0.992     1.560
     2   7 N        2.704    -0.135    23.925     7.265
     3   6 C        2.889     0.079    26.227     8.396
     4   6 C        2.981     0.015    27.679     8.630
     5   6 C        2.903     0.067    26.510     8.442
     6   6 C        3.096    -0.069    29.587     8.915
     7   6 C        2.982    -0.070    29.748     8.947
     8   7 N        2.775    -0.146    24.159     7.300
     9   6 C        2.869     0.257    22.687     7.808
    10   6 C        2.987     0.004    27.920     8.668
    11   6 C        2.925    -0.028    28.712     8.787
    12   6 C        2.922    -0.029    28.736     8.791
    13   6 C        2.920    -0.026    28.660     8.779
    14   6 C        2.919    -0.028    28.701     8.785
    15   6 C        2.920    -0.029    28.725     8.789
    16   6 C        2.920    -0.052    29.298     8.876
    17   6 C        2.930    -0.052    29.296     8.876
    18   6 C        2.921    -0.029    28.731     8.790
    19   6 C        2.919    -0.027    28.687     8.783
    20   6 C        2.919    -0.038    28.933     8.821
    21   1 H        0.860     0.170     1.270     1.766
    22   8 O        0.857    -0.477    23.278     6.469
    23   1 H        0.926     0.031     2.566     2.505
    24   1 H        0.926     0.038     2.477     2.461
    25   1 H        0.926     0.036     2.498     2.471
    26   1 H        0.926     0.036     2.504     2.475
    27   1 H        0.926     0.035     2.516     2.480
    28   1 H        0.926     0.037     2.486     2.465
    29   1 H        0.926     0.042     2.424     2.435
    30   1 H        0.926     0.032     2.563     2.504
    31   1 H        0.926     0.035     2.516     2.480
    32   1 H        0.926     0.031     2.574     2.509
    33   1 H        0.926     0.036     2.503     2.474
    34   1 H        0.926     0.032     2.561     2.503

Wiberg/Mayer (AO) data.
largest (>0.10) Wiberg bond orders for each atom

     #   Z sym  total        # sym  WBO       # sym  WBO       # sym  WBO
 ---------------------------------------------------------------------------
     1   1 H    0.949 --     2 N    0.877
     2   7 N    3.487 --     3 C    1.220     5 C    1.096     1 H    0.877
     3   6 C    3.969 --     6 C    1.479     2 N    1.220     4 C    1.001
     4   6 C    3.988 --    11 C    1.399    12 C    1.398     3 C    1.001
                            15 C    0.111
     5   6 C    3.966 --    16 C    1.369    17 C    1.348     2 N    1.096
     6   6 C    3.962 --     3 C    1.479     7 C    1.158     9 C    1.062
     7   6 C    3.978 --    10 C    1.694     6 C    1.158    32 H    0.972
     8   7 N    3.511 --     9 C    1.174    10 C    1.129    21 H    0.942
                            22 O    0.142
     9   6 C    3.947 --    22 O    1.584     8 N    1.174     6 C    1.062
    10   6 C    3.939 --     7 C    1.694     8 N    1.129    33 H    0.970
    11   6 C    3.991 --    13 C    1.442     4 C    1.399    23 H    0.971
                            14 C    0.111
    12   6 C    3.989 --    14 C    1.446     4 C    1.398    24 H    0.970
                            13 C    0.111
    13   6 C    3.991 --    11 C    1.442    15 C    1.440    25 H    0.970
                            12 C    0.111
    14   6 C    3.991 --    12 C    1.446    15 C    1.436    26 H    0.970
                            11 C    0.111
    15   6 C    3.991 --    13 C    1.440    14 C    1.436    27 H    0.971
                             4 C    0.111
    16   6 C    3.985 --    18 C    1.447     5 C    1.369    28 H    0.960
                            19 C    0.103
    17   6 C    3.984 --    19 C    1.471     5 C    1.348    29 H    0.966
                            18 C    0.106
    18   6 C    3.992 --    16 C    1.447    20 C    1.439    30 H    0.971
                            17 C    0.106
    19   6 C    3.991 --    17 C    1.471    20 C    1.419    31 H    0.971
                            16 C    0.103
    20   6 C    3.971 --    18 C    1.439    19 C    1.419    34 H    0.972
    21   1 H    0.970 --     8 N    0.942
    22   8 O    1.975 --     9 C    1.584     8 N    0.142
    23   1 H    0.999 --    11 C    0.971
    24   1 H    0.998 --    12 C    0.970
    25   1 H    0.998 --    13 C    0.970
    26   1 H    0.998 --    14 C    0.970
    27   1 H    0.998 --    15 C    0.971
    28   1 H    0.999 --    16 C    0.960
    29   1 H    0.998 --    17 C    0.966
    30   1 H    0.999 --    18 C    0.971
    31   1 H    0.998 --    19 C    0.971
    32   1 H    0.999 --     7 C    0.972
    33   1 H    0.998 --    10 C    0.970
    34   1 H    0.999 --    20 C    0.972
 ---------------------------------------------------------------------------

molecular dipole:
                 x           y           z       tot (Debye)
 q only:       -0.621      -0.905       0.073
   full:       -0.895      -0.716       0.228       2.969

           -------------------------------------------------
          | TOTAL ENERGY              -53.433868563082 Eh   |
          | GRADIENT NORM               0.000541368337 Eh/α |
          | HOMO-LUMO GAP               2.210229741355 eV   |
           -------------------------------------------------

 * finished run on 2023/11/18 at 09:06:56.703
