   * xtb version 6.5.0 (97a52f5) compiled by 'conda@d2599ee0d4f4' on 2022-05-15
          program call               : /home/liuchw/anaconda3/envs/xtbenv/bin/xtb --gfn 2 --chrg 0 --uhf 0 1_7_Index_0-opt-2-3-076_preQMOPTprefit_xyzformat.xyz --opt --input xtb-opt-2-3-076_constr.txt

   ID    Z sym.   atoms
    1    1 H      1, 21, 23-34
    2    7 N      2, 8
    3    6 C      3-7, 9-20
    4    8 O      22
constraining angle 1 2 3 4 to   75.9267902°, actual value:   75.9267902°
constraining angle 5 2 3 4 to  213.1650473°, actual value: -146.8349527°
constraining angle 1 2 5 17 to  331.9660565°, actual value:  -28.0339435°
constraining angle 3 2 5 17 to  195.0767810°, actual value: -164.9232190°
constraining angle 2 3 4 12 to  262.1076153°, actual value:  -97.8923847°
constraining angle 2 3 6 7 to  183.1359858°, actual value: -176.8640142°

          :  Hamiltonian                  GFN2-xTB          :
 * total energy  :   -53.4013079 Eh     change       -0.3476899E-09 Eh
 * total energy  :   -53.4149673 Eh     change       -0.1365940E-01 Eh
 * total energy  :   -53.4184311 Eh     change       -0.3463890E-02 Eh
 * total energy  :   -53.4195187 Eh     change       -0.1087546E-02 Eh
 * total energy  :   -53.4202012 Eh     change       -0.6824912E-03 Eh
 * total energy  :   -53.4205408 Eh     change       -0.3396330E-03 Eh
 * total energy  :   -53.4208966 Eh     change       -0.3557682E-03 Eh
 * total energy  :   -53.4212478 Eh     change       -0.3512209E-03 Eh
 * total energy  :   -53.4215330 Eh     change       -0.2851884E-03 Eh
 * total energy  :   -53.4217237 Eh     change       -0.1907472E-03 Eh
 * total energy  :   -53.4218787 Eh     change       -0.5419372E-04 Eh
 * total energy  :   -53.4219090 Eh     change       -0.3035452E-04 Eh
 * total energy  :   -53.4219283 Eh     change       -0.1925495E-04 Eh
 * total energy  :   -53.4219415 Eh     change       -0.1327059E-04 Eh
 * total energy  :   -53.4219534 Eh     change       -0.1183450E-04 Eh
 * total energy  :   -53.4219593 Eh     change       -0.5907307E-05 Eh
 * total energy  :   -53.4219643 Eh     change       -0.5043336E-05 Eh
 * total energy  :   -53.4219689 Eh     change       -0.4578349E-05 Eh
 * total energy  :   -53.4219712 Eh     change       -0.2271219E-05 Eh
   *** GEOMETRY OPTIMIZATION CONVERGED AFTER 20 ITERATIONS ***

 final structure:
================
34
 xtb: 6.5.0 (97a52f5)
H            0.88519602279079       -0.48722459733819       -1.76616836978552
N            0.78396591796078       -0.58778670229820       -0.76244114689018
C           -0.47550309368082       -0.16085794761214       -0.34239258766959
C           -1.55162321067102       -1.13673776996458       -0.65507680082514
C            1.97001819352432       -0.28837664923692       -0.08765824643033
C           -0.77954210764574        1.00587690944035        0.28084721989631
C           -2.08193944243416        1.40432610197053        0.76672441130593
N           -0.71402562059490        3.15904734575467        0.97845163096092
C            0.09234046346945        2.19428076072554        0.42181639881509
C           -1.99466660748653        2.67993084216109        1.18162141124755
C           -1.72345433761677       -2.25074839717043        0.15815835400116
C           -2.35072806680811       -0.98206074893217       -1.78109548823150
C           -2.70326528567876       -3.18155833504503       -0.13656970359742
C           -3.32614487538712       -1.91819871605265       -2.07620922836848
C           -3.50542304518109       -3.01726332119743       -1.25349967729123
C            2.00248649239508       -0.05027288912349        1.28486063842649
C            3.17536630565463       -0.48918538848494       -0.75876375624918
C            3.21059751872175        0.07380409600746        1.94158492330712
C            4.37978776147871       -0.36083629776402       -0.09664705860529
C            4.40490620890274       -0.07086017501494        1.25671573010699
H           -0.39931464491543        4.09072742075218        1.19145874865771
O            1.24236776010653        2.37197455589759        0.07037383748734
H           -1.09092267143488       -2.37728597281666        1.02426634495781
H           -2.21325253143111       -0.11971133763184       -2.41750460971804
H           -2.83815535285508       -4.03991021658141        0.50490504836757
H           -3.94569931187069       -1.79028215205423       -2.95160999595871
H           -4.26788931907120       -3.74646543487285       -1.48401260782662
H            1.07945017241785        0.04082599458832        1.83747344302944
H            3.16153004821223       -0.71693957290036       -1.81630591841788
H            3.21783804387503        0.27970440116534        3.00216315534183
H            5.30385491499122       -0.49795322662121       -0.63922180408335
H           -2.94272302774472        0.76693570657910        0.80207983934336
H           -2.74851049354847        3.31380041211248        1.60904334857069
H            5.34647422155510        0.03228331156010        1.77469252612207

          :  Hamiltonian                  GFN2-xTB          :
         :: total energy             -53.421971169115 Eh    ::
         :: gradient norm              0.000926455038 Eh/a0 ::
         :: HOMO-LUMO gap              2.136398549156 eV    ::
         :: SCC energy               -54.346277909375 Eh    ::
         :: -> dispersion             -0.039337589202 Eh    ::
         :: repulsion energy           0.923996955804 Eh    ::

    * Orbital Energies and Occupations

         #    Occupation            Energy/Eh            Energy/eV
      -------------------------------------------------------------
         1        2.0000           -0.6911690             -18.8077
       ...           ...                  ...                  ...
        37        2.0000           -0.4626036             -12.5881
        38        2.0000           -0.4432091             -12.0603
        39        2.0000           -0.4369321             -11.8895
        40        2.0000           -0.4298139             -11.6958
        41        2.0000           -0.4245206             -11.5518
        42        2.0000           -0.4191062             -11.4045
        43        2.0000           -0.4139596             -11.2644
        44        2.0000           -0.4130870             -11.2407
        45        2.0000           -0.4083830             -11.1127
        46        2.0000           -0.3913974             -10.6505
        47        2.0000           -0.3862714             -10.5110
        48        2.0000           -0.3712674             -10.1027
        49        2.0000           -0.3546386              -9.6502 (HOMO)
        50                         -0.2761274              -7.5138 (LUMO)
        51                         -0.2328943              -6.3374
        52                         -0.2320821              -6.3153
        53                         -0.2087541              -5.6805
        54                         -0.1990770              -5.4172
        55                         -0.1746275              -4.7519
        56                         -0.1267665              -3.4495
        57                         -0.1027872              -2.7970
        58                         -0.0759361              -2.0663
        59                          0.0244280               0.6647
        60                          0.0378987               1.0313
       ...                                ...                  ...
        94                          0.7505337              20.4231
      -------------------------------------------------------------
                  HL-Gap            0.0785112 Eh            2.1364 eV

     #   Z          covCN         q      C6AA      α(0)
     1   1 H        0.860     0.177     1.230     1.737
     2   7 N        2.697    -0.163    24.519     7.354
     3   6 C        2.889     0.080    26.211     8.394
     4   6 C        2.983     0.007    27.847     8.656
     5   6 C        2.906     0.084    26.127     8.381
     6   6 C        3.071    -0.048    29.122     8.848
     7   6 C        2.978    -0.073    29.825     8.958
     8   7 N        2.772    -0.151    24.252     7.314
     9   6 C        2.853     0.270    22.456     7.767
    10   6 C        2.974     0.013    27.724     8.637
    11   6 C        2.924    -0.027    28.674     8.781
    12   6 C        2.923    -0.031    28.780     8.798
    13   6 C        2.919    -0.027    28.680     8.782
    14   6 C        2.919    -0.028    28.695     8.784
    15   6 C        2.920    -0.029    28.723     8.789
    16   6 C        2.923    -0.037    28.924     8.819
    17   6 C        2.927    -0.051    29.258     8.871
    18   6 C        2.921    -0.026    28.654     8.778
    19   6 C        2.920    -0.027    28.674     8.781
    20   6 C        2.920    -0.038    28.937     8.821
    21   1 H        0.860     0.172     1.260     1.758
    22   8 O        0.857    -0.438    22.451     6.353
    23   1 H        0.926     0.038     2.470     2.458
    24   1 H        0.926     0.032     2.563     2.503
    25   1 H        0.926     0.037     2.494     2.469
    26   1 H        0.926     0.035     2.510     2.477
    27   1 H        0.926     0.035     2.517     2.481
    28   1 H        0.926     0.026     2.642     2.542
    29   1 H        0.925     0.024     2.677     2.558
    30   1 H        0.926     0.029     2.595     2.519
    31   1 H        0.926     0.030     2.585     2.514
    32   1 H        0.926     0.035     2.512     2.479
    33   1 H        0.926     0.039     2.457     2.451
    34   1 H        0.926     0.029     2.607     2.525

Wiberg/Mayer (AO) data.
largest (>0.10) Wiberg bond orders for each atom

     #   Z sym  total        # sym  WBO       # sym  WBO       # sym  WBO
 ---------------------------------------------------------------------------
     1   1 H    0.968 --     2 N    0.916
     2   7 N    3.372 --     3 C    1.108     5 C    1.094     1 H    0.916
     3   6 C    3.972 --     6 C    1.585     2 N    1.108     4 C    0.997
     4   6 C    3.988 --    12 C    1.405    11 C    1.400     3 C    0.997
                            15 C    0.110
     5   6 C    3.966 --    16 C    1.359    17 C    1.359     2 N    1.094
     6   6 C    3.974 --     3 C    1.585     7 C    1.136     9 C    1.020
     7   6 C    3.977 --    10 C    1.707     6 C    1.136    32 H    0.971
     8   7 N    3.505 --     9 C    1.156    10 C    1.133    21 H    0.941
                            22 O    0.147
     9   6 C    3.948 --    22 O    1.656     8 N    1.156     6 C    1.020
    10   6 C    3.952 --     7 C    1.707     8 N    1.133    33 H    0.969
    11   6 C    3.988 --    13 C    1.445     4 C    1.400    23 H    0.970
                            14 C    0.112
    12   6 C    3.991 --    14 C    1.443     4 C    1.405    24 H    0.971
                            13 C    0.111
    13   6 C    3.991 --    11 C    1.445    15 C    1.438    25 H    0.970
                            12 C    0.111
    14   6 C    3.991 --    12 C    1.443    15 C    1.440    26 H    0.970
                            11 C    0.112
    15   6 C    3.990 --    14 C    1.440    13 C    1.438    27 H    0.971
                             4 C    0.110
    16   6 C    3.991 --    18 C    1.458     5 C    1.359    28 H    0.967
                            19 C    0.105
    17   6 C    3.984 --    19 C    1.459     5 C    1.359    29 H    0.968
                            18 C    0.104
    18   6 C    3.993 --    16 C    1.458    20 C    1.430    30 H    0.971
                            17 C    0.104
    19   6 C    3.992 --    17 C    1.459    20 C    1.429    31 H    0.971
                            16 C    0.105
    20   6 C    3.983 --    18 C    1.430    19 C    1.429    34 H    0.972
    21   1 H    0.969 --     8 N    0.941
    22   8 O    2.013 --     9 C    1.656     8 N    0.147
    23   1 H    0.998 --    11 C    0.970
    24   1 H    0.999 --    12 C    0.971
    25   1 H    0.997 --    13 C    0.970
    26   1 H    0.998 --    14 C    0.970
    27   1 H    0.998 --    15 C    0.971
    28   1 H    0.999 --    16 C    0.967
    29   1 H    0.999 --    17 C    0.968
    30   1 H    0.999 --    18 C    0.971
    31   1 H    0.999 --    19 C    0.971
    32   1 H    0.999 --     7 C    0.971
    33   1 H    0.998 --    10 C    0.969
    34   1 H    0.999 --    20 C    0.972
 ---------------------------------------------------------------------------

molecular dipole:
                 x           y           z       tot (Debye)
 q only:       -1.119      -0.601      -0.109
   full:       -1.291      -0.223      -0.125       3.346

           -------------------------------------------------
          | TOTAL ENERGY              -53.421971169115 Eh   |
          | GRADIENT NORM               0.000926455038 Eh/α |
          | HOMO-LUMO GAP               2.136398549156 eV   |
           -------------------------------------------------

 * finished run on 2023/11/18 at 09:08:31.479
