                               Psi4 1.6 release

  ==> Input File <==

--------------------------------------------------------------------------
molecule {
0 1
 H    0.621566   -1.973811    0.388213
 N    0.648679   -0.994085    0.659335
 C   -0.554201   -0.386482    0.377572
 C   -1.454126   -1.158009   -0.516742
 C    1.919748   -0.454314    0.429814
 C   -0.976147    0.785740    0.925079
 C   -2.255241    1.423110    0.713735
 N   -1.182511    2.564307    2.306466
 C   -0.299517    1.555906    1.989410
 C   -2.333490    2.475649    1.547029
 C   -2.230346   -2.199674   -0.022847
 C   -1.487865   -0.861140   -1.874315
 C   -3.038762   -2.928908   -0.876845
 C   -2.297954   -1.592542   -2.724665
 C   -3.073331   -2.626799   -2.227874
 C    2.136285    0.880594    0.105200
 C    3.007157   -1.325829    0.476722
 C    3.422169    1.335843   -0.119908
 C    4.287553   -0.861367    0.253662
 C    4.502866    0.475530   -0.037774
 H   -1.005084    3.255454    3.015538
 O    0.769963    1.375635    2.539058
 H   -2.202631   -2.427410    1.032907
 H   -0.881491   -0.052868   -2.256730
 H   -3.643326   -3.734297   -0.486728
 H   -2.322293   -1.355242   -3.777972
 H   -3.704448   -3.196776   -2.893370
 H    1.304214    1.557217    0.004642
 H    2.841420   -2.370194    0.704002
 H    3.578056    2.375634   -0.366826
 H    5.120357   -1.547640    0.302113
 H   -2.991806    1.101892    0.004541
 H   -3.126406    3.187556    1.678523
 H    5.504336    0.840316   -0.208904
}
memory 20GB
set_num_threads(5)
psi4_io.set_default_path("/scratch/liuchw/Psi4-1_7_Index_0-farH_in17")
set freeze_core True
E, wfn = energy('wb97x-d/6-311+G*',return_wfn=True)
oeprop(wfn,"WIBERG_LOWDIN_INDICES")
clean()
--------------------------------------------------------------------------

    Molecular point group: c1

    Geometry (in Angstrom), charge = 0, multiplicity = 1:

       Center              X                  Y                   Z               Mass
    ------------   -----------------  -----------------  -----------------  -----------------
         H            0.639790588463    -1.874862943622     0.158283539647     1.007825032230
         N            0.666903588463    -0.895136943622     0.429405539647    14.003074004430
         C           -0.535976411537    -0.287533943622     0.147642539647    12.000000000000
         C           -1.435901411537    -1.059060943622    -0.746671460353    12.000000000000
         C            1.937972588463    -0.355365943622     0.199884539647    12.000000000000
         C           -0.957922411537     0.884688056378     0.695149539647    12.000000000000
         C           -2.237016411537     1.522058056378     0.483805539647    12.000000000000
         N           -1.164286411537     2.663255056378     2.076536539647    14.003074004430
         C           -0.281292411537     1.654854056378     1.759480539647    12.000000000000
         C           -2.315265411537     2.574597056378     1.317099539647    12.000000000000
         C           -2.212121411537    -2.100725943622    -0.252776460353    12.000000000000
         C           -1.469640411537    -0.762191943622    -2.104244460353    12.000000000000
         C           -3.020537411537    -2.829959943622    -1.106774460353    12.000000000000
         C           -2.279729411537    -1.493593943622    -2.954594460353    12.000000000000
         C           -3.055106411537    -2.527850943622    -2.457803460353    12.000000000000
         C            2.154509588463     0.979542056378    -0.124729460353    12.000000000000
         C            3.025381588463    -1.226880943622     0.246792539647    12.000000000000
         C            3.440393588463     1.434791056378    -0.349837460353    12.000000000000
         C            4.305777588463    -0.762418943622     0.023732539647    12.000000000000
         C            4.521090588463     0.574478056378    -0.267703460353    12.000000000000
         H           -0.986859411537     3.354402056378     2.785608539647     1.007825032230
         O            0.788187588463     1.474583056378     2.309128539647    15.994914619570
         H           -2.184406411537    -2.328461943622     0.802977539647     1.007825032230
         H           -0.863266411537     0.046080056378    -2.486659460353     1.007825032230
         H           -3.625101411537    -3.635348943622    -0.716657460353     1.007825032230
         H           -2.304068411537    -1.256293943622    -4.007901460353     1.007825032230
         H           -3.686223411537    -3.097827943622    -3.123299460353     1.007825032230
         H            1.322438588463     1.656165056378    -0.225287460353     1.007825032230
         H            2.859644588463    -2.271245943622     0.474072539647     1.007825032230
         H            3.596280588463     2.474582056378    -0.596755460353     1.007825032230
         H            5.138581588463    -1.448691943622     0.072183539647     1.007825032230
         H           -2.973581411537     1.200840056378    -0.225388460353     1.007825032230
         H           -3.108181411537     3.286504056378     1.448593539647     1.007825032230
         H            5.522560588463     0.939264056378    -0.438833460353     1.007825032230

  Charge       = 0
  Multiplicity = 1
  Basis Set: 6-311+G*
    Blend: 6-311+G*
  Basis Set: (6-311+G* AUX)
    Blend: HEAVY-AUG-CC-PVTZ-JKFIT

    Orbital Energies [Eh]
    ---------------------

    Doubly Occupied:

       1A    -19.205843     2A    -14.471805     3A    -14.462627
       4A    -10.378455     5A    -10.355430     6A    -10.328325
       7A    -10.321748     8A    -10.314623     9A    -10.304433
      10A    -10.303588    11A    -10.302516    12A    -10.302089
      13A    -10.301334    14A    -10.291661    15A    -10.280501
      16A    -10.279819    17A    -10.278222    18A    -10.275665
      19A    -10.275307    20A    -10.272083    21A     -1.140884
      22A     -1.075048    23A     -1.060107    24A     -0.985451
      25A     -0.953810    26A     -0.914109    27A     -0.876273
      28A     -0.867638    29A     -0.847230    30A     -0.841222
      31A     -0.817912    32A     -0.770933    33A     -0.723625
      34A     -0.720603    35A     -0.707482    36A     -0.700928
      37A     -0.683891    38A     -0.652281    39A     -0.632788
      40A     -0.619577    41A     -0.598567    42A     -0.588259
      43A     -0.575359    44A     -0.564891    45A     -0.554670
      46A     -0.534101    47A     -0.531126    48A     -0.526653
      49A     -0.524985    50A     -0.517076    51A     -0.512377
      52A     -0.503326    53A     -0.497659    54A     -0.492565
      55A     -0.476714    56A     -0.473954    57A     -0.450702
      58A     -0.447138    59A     -0.437144    60A     -0.423502
      61A     -0.422181    62A     -0.413174    63A     -0.364744
      64A     -0.348641    65A     -0.348288    66A     -0.336316
      67A     -0.322632    68A     -0.295862    69A     -0.263639

  @DF-RKS Final Energy:  -840.84969311892110

   => Energetics <=

    Nuclear Repulsion Energy =           1432.4081294863885887
    One-Electron Energy =               -3983.7713748954256516
    Two-Electron Energy =                1793.3170452567924258
    DFT Exchange-Correlation Energy =     -82.7792824447239894
    Empirical Dispersion Energy =          -0.0242105219525520
    VV10 Nonlocal Energy =                  0.0000000000000000
    Total Energy =                       -840.8496931189212091
 Dipole X            :         -0.6421301           -0.6063655           -1.2484956
 Dipole Y            :          2.4630611           -2.7681752           -0.3051141
 Dipole Z            :          4.8381245           -5.6951196           -0.8569952
 Magnitude           :                                                    1.5447578
*** Psi4 exiting successfully. Buy a developer a beer!
