   * xtb version 6.5.0 (97a52f5) compiled by 'conda@d2599ee0d4f4' on 2022-05-15
          program call               : /home/liuchw/anaconda3/envs/xtbenv/bin/xtb --gfn 2 --chrg 0 --uhf 0 1_7_Index_0-opt-2-3-196_preQMOPTprefit_xyzformat.xyz --opt --input xtb-opt-2-3-196_constr.txt

   ID    Z sym.   atoms
    1    1 H      1, 21, 23-34
    2    7 N      2, 8
    3    6 C      3-7, 9-20
    4    8 O      22
constraining angle 1 2 3 4 to  195.9102626°, actual value: -164.0897374°
constraining angle 5 2 3 4 to  333.0239872°, actual value:  -26.9760128°
constraining angle 1 2 5 17 to  332.1153788°, actual value:  -27.8846212°
constraining angle 3 2 5 17 to  195.0016289°, actual value: -164.9983711°
constraining angle 2 3 4 12 to  262.0542948°, actual value:  -97.9457052°
constraining angle 2 3 6 7 to  182.9725922°, actual value: -177.0274078°

          :  Hamiltonian                  GFN2-xTB          :
 * total energy  :   -53.4175286 Eh     change       -0.9742323E-09 Eh
 * total energy  :   -53.4330646 Eh     change       -0.1553592E-01 Eh
 * total energy  :   -53.4376632 Eh     change       -0.4598630E-02 Eh
 * total energy  :   -53.4366755 Eh     change        0.9876574E-03 Eh
 * total energy  :   -53.4390088 Eh     change       -0.2333242E-02 Eh
 * total energy  :   -53.4392821 Eh     change       -0.2733751E-03 Eh
 * total energy  :   -53.4395391 Eh     change       -0.2569294E-03 Eh
 * total energy  :   -53.4396574 Eh     change       -0.1182906E-03 Eh
 * total energy  :   -53.4397385 Eh     change       -0.8117533E-04 Eh
 * total energy  :   -53.4397826 Eh     change       -0.4409268E-04 Eh
 * total energy  :   -53.4398010 Eh     change       -0.1833986E-04 Eh
 * total energy  :   -53.4398101 Eh     change       -0.9120364E-05 Eh
 * total energy  :   -53.4398132 Eh     change       -0.3138725E-05 Eh
   *** GEOMETRY OPTIMIZATION CONVERGED AFTER 13 ITERATIONS ***

 final structure:
================
34
 xtb: 6.5.0 (97a52f5)
H            1.20948548625529        1.61122760745124       -0.14971909390223
N            0.94370996540739        0.64624918628302       -0.40701212005097
C           -0.40410290872262        0.52992179071878       -0.29141508035312
C           -1.12208528299021       -0.76527571027592       -0.24718004110072
C            1.95969113473116       -0.23183618138834       -0.02540082154596
C           -1.15491369387365        1.67812549342862       -0.21398238392967
C           -2.57424849064956        1.83649967191149       -0.03320395389953
N           -1.62106807169084        3.84988538947654        0.16690730738074
C           -0.57000976439442        3.00730592010008       -0.05682923155856
C           -2.81394243213278        3.14482963758729        0.17833710507619
C           -1.33740961549531       -1.39466815292022        0.97617651429851
C           -1.70916209220941       -1.28397243224193       -1.39463204486722
C           -2.09118389868890       -2.55214325793229        1.03923375771666
C           -2.45918721447553       -2.44543205231848       -1.32723004557585
C           -2.64954038678190       -3.08202597149851       -0.11274785613073
C            1.80868990799522       -1.60506287138793        0.15932440753777
C            3.24865237462527        0.30965845084146        0.01850735162955
C            2.90710752628090       -2.38929157259261        0.46471478958168
C            4.33745305316148       -0.48035462001824        0.32210976497047
C            4.17203715285067       -1.83685104417823        0.55518875635638
H           -1.52960345949937        4.84089514696558        0.31426600810415
O            0.61889163301136        3.33075138278721       -0.06509364945754
H           -0.90526799508603       -0.97557311207832        1.87355045149793
H           -1.56384190946369       -0.78081870548724       -2.33902124812513
H           -2.24753135101639       -3.03834645782163        1.99080742717484
H           -2.90354556568899       -2.84897748804793       -2.22502046308646
H           -3.23822966936719       -3.98583259652504       -0.06143421820892
H            0.84219394280053       -2.07001138662883        0.06632512301608
H            3.37706604553568        1.36726815388829       -0.16242808882753
H            2.76772047264297       -3.44886498109836        0.62172699563860
H            5.32202463318510       -0.03902696727574        0.36705020272499
H           -3.29744582847530        1.04699148255505       -0.08179760401521
H           -3.74181332591329        3.65517277429374        0.35018866888943
H            5.02280463813256       -2.45741551657244        0.79179132304155

          :  Hamiltonian                  GFN2-xTB          :
         :: total energy             -53.439813234098 Eh    ::
         :: gradient norm              0.000696859391 Eh/a0 ::
         :: HOMO-LUMO gap              2.228431234843 eV    ::
         :: SCC energy               -54.361313283005 Eh    ::
         :: -> dispersion             -0.038926733937 Eh    ::
         :: repulsion energy           0.921169027200 Eh    ::

    * Orbital Energies and Occupations

         #    Occupation            Energy/Eh            Energy/eV
      -------------------------------------------------------------
         1        2.0000           -0.6859377             -18.6653
       ...           ...                  ...                  ...
        37        2.0000           -0.4593346             -12.4991
        38        2.0000           -0.4571119             -12.4386
        39        2.0000           -0.4376949             -11.9103
        40        2.0000           -0.4359461             -11.8627
        41        2.0000           -0.4339402             -11.8081
        42        2.0000           -0.4264937             -11.6055
        43        2.0000           -0.4182840             -11.3821
        44        2.0000           -0.4145835             -11.2814
        45        2.0000           -0.4072726             -11.0825
        46        2.0000           -0.4050339             -11.0215
        47        2.0000           -0.3862795             -10.5112
        48        2.0000           -0.3820304             -10.3956
        49        2.0000           -0.3500391              -9.5251 (HOMO)
        50                         -0.2681458              -7.2966 (LUMO)
        51                         -0.2353529              -6.4043
        52                         -0.2332748              -6.3477
        53                         -0.2235232              -6.0824
        54                         -0.2081483              -5.6640
        55                         -0.1706447              -4.6435
        56                         -0.1181146              -3.2141
        57                         -0.1052671              -2.8645
        58                         -0.0882847              -2.4023
        59                          0.0288953               0.7863
        60                          0.0412157               1.1215
       ...                                ...                  ...
        94                          0.7271686              19.7873
      -------------------------------------------------------------
                  HL-Gap            0.0818933 Eh            2.2284 eV

     #   Z          covCN         q      C6AA      α(0)
     1   1 H        0.859     0.234     0.948     1.525
     2   7 N        2.704    -0.140    24.025     7.280
     3   6 C        2.888     0.083    26.151     8.384
     4   6 C        2.980     0.013    27.711     8.635
     5   6 C        2.902     0.068    26.471     8.436
     6   6 C        3.096    -0.073    29.698     8.931
     7   6 C        2.984    -0.069    29.719     8.942
     8   7 N        2.776    -0.145    24.127     7.295
     9   6 C        2.874     0.255    22.727     7.815
    10   6 C        2.990     0.002    27.968     8.675
    11   6 C        2.924    -0.028    28.704     8.786
    12   6 C        2.923    -0.029    28.721     8.789
    13   6 C        2.919    -0.028    28.703     8.786
    14   6 C        2.919    -0.027    28.683     8.783
    15   6 C        2.920    -0.029    28.731     8.790
    16   6 C        2.920    -0.052    29.282     8.874
    17   6 C        2.930    -0.051    29.275     8.873
    18   6 C        2.921    -0.029    28.729     8.790
    19   6 C        2.919    -0.027    28.680     8.782
    20   6 C        2.919    -0.037    28.921     8.819
    21   1 H        0.860     0.170     1.270     1.765
    22   8 O        0.857    -0.486    23.488     6.498
    23   1 H        0.926     0.033     2.539     2.492
    24   1 H        0.926     0.037     2.482     2.464
    25   1 H        0.926     0.035     2.510     2.477
    26   1 H        0.926     0.036     2.502     2.473
    27   1 H        0.926     0.035     2.523     2.484
    28   1 H        0.926     0.038     2.478     2.462
    29   1 H        0.926     0.045     2.389     2.417
    30   1 H        0.926     0.032     2.557     2.501
    31   1 H        0.926     0.036     2.507     2.476
    32   1 H        0.926     0.030     2.580     2.512
    33   1 H        0.926     0.036     2.508     2.477
    34   1 H        0.926     0.032     2.555     2.500

Wiberg/Mayer (AO) data.
largest (>0.10) Wiberg bond orders for each atom

     #   Z sym  total        # sym  WBO       # sym  WBO       # sym  WBO
 ---------------------------------------------------------------------------
     1   1 H    0.944 --     2 N    0.858
     2   7 N    3.509 --     3 C    1.251     5 C    1.089     1 H    0.858
     3   6 C    3.970 --     6 C    1.460     2 N    1.251     4 C    1.003
     4   6 C    3.988 --    12 C    1.405    11 C    1.391     3 C    1.003
                            15 C    0.111
     5   6 C    3.963 --    16 C    1.370    17 C    1.349     2 N    1.089
     6   6 C    3.959 --     3 C    1.460     7 C    1.158     9 C    1.073
     7   6 C    3.978 --    10 C    1.696     6 C    1.158    32 H    0.972
     8   7 N    3.514 --     9 C    1.184    10 C    1.126    21 H    0.942
                            22 O    0.141
     9   6 C    3.948 --    22 O    1.559     8 N    1.184     6 C    1.073
    10   6 C    3.936 --     7 C    1.696     8 N    1.126    33 H    0.970
    11   6 C    3.991 --    13 C    1.448     4 C    1.391    23 H    0.971
                            14 C    0.112
    12   6 C    3.988 --    14 C    1.440     4 C    1.405    24 H    0.970
                            13 C    0.110
    13   6 C    3.991 --    11 C    1.448    15 C    1.434    25 H    0.970
                            12 C    0.110
    14   6 C    3.991 --    15 C    1.442    12 C    1.440    26 H    0.970
                            11 C    0.112
    15   6 C    3.991 --    14 C    1.442    13 C    1.434    27 H    0.971
                             4 C    0.111
    16   6 C    3.985 --    18 C    1.447     5 C    1.370    28 H    0.960
                            19 C    0.103
    17   6 C    3.983 --    19 C    1.470     5 C    1.349    29 H    0.966
                            18 C    0.106
    18   6 C    3.992 --    16 C    1.447    20 C    1.439    30 H    0.971
                            17 C    0.106
    19   6 C    3.991 --    17 C    1.470    20 C    1.420    31 H    0.971
                            16 C    0.103
    20   6 C    3.970 --    18 C    1.439    19 C    1.420    34 H    0.971
    21   1 H    0.970 --     8 N    0.942
    22   8 O    1.974 --     9 C    1.559     8 N    0.141
    23   1 H    0.999 --    11 C    0.971
    24   1 H    0.999 --    12 C    0.970
    25   1 H    0.998 --    13 C    0.970
    26   1 H    0.998 --    14 C    0.970
    27   1 H    0.998 --    15 C    0.971
    28   1 H    0.999 --    16 C    0.960
    29   1 H    0.998 --    17 C    0.966
    30   1 H    0.999 --    18 C    0.971
    31   1 H    0.998 --    19 C    0.971
    32   1 H    0.999 --     7 C    0.972
    33   1 H    0.998 --    10 C    0.970
    34   1 H    0.999 --    20 C    0.971
 ---------------------------------------------------------------------------

molecular dipole:
                 x           y           z       tot (Debye)
 q only:       -0.570      -0.866       0.105
   full:       -0.830      -0.636       0.263       2.742

           -------------------------------------------------
          | TOTAL ENERGY              -53.439813234098 Eh   |
          | GRADIENT NORM               0.000696859391 Eh/α |
          | HOMO-LUMO GAP               2.228431234843 eV   |
           -------------------------------------------------

 * finished run on 2023/11/18 at 09:06:35.265
