                               Psi4 1.6 release

  ==> Input File <==

--------------------------------------------------------------------------
molecule {
0 1
 H    1.187625    1.433909   -0.625304
 N    0.930072    0.439317   -0.519763
 C   -0.400323    0.378950   -0.226045
 C   -1.188706   -0.877035   -0.299986
 C    2.021993   -0.252605    0.003259
 C   -1.104267    1.550919   -0.102494
 C   -2.484866    1.754085    0.253582
 N   -1.495534    3.757873    0.145171
 C   -0.493148    2.878900   -0.151081
 C   -2.677372    3.079051    0.396437
 C   -1.386420   -1.701607    0.803262
 C   -1.934229   -1.105136   -1.452196
 C   -2.234495   -2.791965    0.719634
 C   -2.774951   -2.200034   -1.536533
 C   -2.920281   -3.051474   -0.454435
 C    1.939109   -1.475975    0.663635
 C    3.286220    0.269720   -0.284377
 C    3.089755   -2.112727    1.093473
 C    4.427761   -0.373839    0.145541
 C    4.336443   -1.567708    0.844319
 H   -1.376710    4.755910    0.191974
 O    0.670353    3.181713   -0.415015
 H   -0.899204   -1.473027    1.740752
 H   -1.826869   -0.434574   -2.291962
 H   -2.371646   -3.430749    1.579879
 H   -3.332339   -2.377892   -2.444293
 H   -3.581869   -3.902487   -0.518598
 H    0.982913   -1.936627    0.839337
 H    3.356569    1.203725   -0.822738
 H    3.006062   -3.052084    1.620445
 H    5.395564    0.053107   -0.072176
 H   -3.210381    0.976377    0.385402
 H   -3.562778    3.618884    0.671640
 H    5.229344   -2.071894    1.181314
}
memory 20GB
set_num_threads(5)
psi4_io.set_default_path("/scratch/liuchw/Psi4-1_7_Index_0-farH_in17")
set freeze_core True
E, wfn = energy('wb97x-d/6-311+G*',return_wfn=True)
oeprop(wfn,"WIBERG_LOWDIN_INDICES")
clean()
--------------------------------------------------------------------------

    Molecular point group: c1

    Geometry (in Angstrom), charge = 0, multiplicity = 1:

       Center              X                  Y                   Z               Mass
    ------------   -----------------  -----------------  -----------------  -----------------
         H            1.203575763371     1.388913989001    -0.604531385169     1.007825032230
         N            0.946022763371     0.394321989001    -0.498990385169    14.003074004430
         C           -0.384372236629     0.333954989001    -0.205272385169    12.000000000000
         C           -1.172755236629    -0.922030010999    -0.279213385169    12.000000000000
         C            2.037943763371    -0.297600010999     0.024031614831    12.000000000000
         C           -1.088316236629     1.505923989001    -0.081721385169    12.000000000000
         C           -2.468915236629     1.709089989001     0.274354614831    12.000000000000
         N           -1.479583236629     3.712877989001     0.165943614831    14.003074004430
         C           -0.477197236629     2.833904989001    -0.130308385169    12.000000000000
         C           -2.661421236629     3.034055989001     0.417209614831    12.000000000000
         C           -1.370469236629    -1.746602010999     0.824034614831    12.000000000000
         C           -1.918278236629    -1.150131010999    -1.431423385169    12.000000000000
         C           -2.218544236629    -2.836960010999     0.740406614831    12.000000000000
         C           -2.759000236629    -2.245029010999    -1.515760385169    12.000000000000
         C           -2.904330236629    -3.096469010999    -0.433662385169    12.000000000000
         C            1.955059763371    -1.520970010999     0.684407614831    12.000000000000
         C            3.302170763371     0.224724989001    -0.263604385169    12.000000000000
         C            3.105705763371    -2.157722010999     1.114245614831    12.000000000000
         C            4.443711763371    -0.418834010999     0.166313614831    12.000000000000
         C            4.352393763371    -1.612703010999     0.865091614831    12.000000000000
         H           -1.360759236629     4.710914989001     0.212746614831     1.007825032230
         O            0.686303763371     3.136717989001    -0.394242385169    15.994914619570
         H           -0.883253236629    -1.518022010999     1.761524614831     1.007825032230
         H           -1.810918236629    -0.479569010999    -2.271189385169     1.007825032230
         H           -2.355695236629    -3.475744010999     1.600651614831     1.007825032230
         H           -3.316388236629    -2.422887010999    -2.423520385169     1.007825032230
         H           -3.565918236629    -3.947482010999    -0.497825385169     1.007825032230
         H            0.998863763371    -1.981622010999     0.860109614831     1.007825032230
         H            3.372519763371     1.158729989001    -0.801965385169     1.007825032230
         H            3.022012763371    -3.097079010999     1.641217614831     1.007825032230
         H            5.411514763371     0.008111989001    -0.051403385169     1.007825032230
         H           -3.194430236629     0.931381989001     0.406174614831     1.007825032230
         H           -3.546827236629     3.573888989001     0.692412614831     1.007825032230
         H            5.245294763371    -2.116889010999     1.202086614831     1.007825032230

  Charge       = 0
  Multiplicity = 1
  Basis Set: 6-311+G*
    Blend: 6-311+G*
  Basis Set: (6-311+G* AUX)
    Blend: HEAVY-AUG-CC-PVTZ-JKFIT

    Orbital Energies [Eh]
    ---------------------

    Doubly Occupied:

       1A    -19.215535     2A    -14.469947     3A    -14.464854
       4A    -10.383905     5A    -10.362852     6A    -10.335468
       7A    -10.320679     8A    -10.314981     9A    -10.303609
      10A    -10.301978    11A    -10.300924    12A    -10.300365
      13A    -10.299740    14A    -10.287973    15A    -10.287278
      16A    -10.286903    17A    -10.283994    18A    -10.282950
      19A    -10.279736    20A    -10.278841    21A     -1.147993
      22A     -1.073866    23A     -1.066170    24A     -0.985066
      25A     -0.961267    26A     -0.916264    27A     -0.876657
      28A     -0.866367    29A     -0.852826    30A     -0.852211
      31A     -0.815206    32A     -0.773676    33A     -0.724924
      34A     -0.723054    35A     -0.713711    36A     -0.699282
      37A     -0.683947    38A     -0.661651    39A     -0.639795
      40A     -0.613648    41A     -0.604897    42A     -0.583988
      43A     -0.580839    44A     -0.564974    45A     -0.555724
      46A     -0.538692    47A     -0.533965    48A     -0.530387
      49A     -0.524300    50A     -0.520181    51A     -0.511739
      52A     -0.509613    53A     -0.505494    54A     -0.495160
      55A     -0.483359    56A     -0.474218    57A     -0.449019
      58A     -0.447757    59A     -0.442920    60A     -0.430118
      61A     -0.427910    62A     -0.420017    63A     -0.365781
      64A     -0.348947    65A     -0.344980    66A     -0.342091
      67A     -0.333237    68A     -0.306880    69A     -0.261492

  @DF-RKS Final Energy:  -840.85536042679712

   => Energetics <=

    Nuclear Repulsion Energy =           1422.8897065267690323
    One-Electron Energy =               -3964.3310381383025742
    Two-Electron Energy =                1783.3982732496772314
    DFT Exchange-Correlation Energy =     -82.7884450975800235
    Empirical Dispersion Energy =          -0.0238569673609232
    VV10 Nonlocal Energy =                  0.0000000000000000
    Total Energy =                       -840.8553604267970059
 Dipole X            :         -0.4290831           -0.7267616           -1.1558447
 Dipole Y            :          6.3659988           -6.8097784           -0.4437796
 Dipole Z            :         -1.3042079            1.6176034            0.3133954
 Magnitude           :                                                    1.2771586
*** Psi4 exiting successfully. Buy a developer a beer!
