                               Psi4 1.6 release

  ==> Input File <==

--------------------------------------------------------------------------
molecule {
0 1
 H    0.885196   -0.487225   -1.766168
 N    0.783966   -0.587787   -0.762441
 C   -0.475503   -0.160858   -0.342393
 C   -1.551623   -1.136738   -0.655077
 C    1.970018   -0.288377   -0.087658
 C   -0.779542    1.005877    0.280847
 C   -2.081939    1.404326    0.766724
 N   -0.714026    3.159047    0.978452
 C    0.092340    2.194281    0.421816
 C   -1.994667    2.679931    1.181621
 C   -1.723454   -2.250748    0.158158
 C   -2.350728   -0.982061   -1.781095
 C   -2.703265   -3.181558   -0.136570
 C   -3.326145   -1.918199   -2.076209
 C   -3.505423   -3.017263   -1.253500
 C    2.002486   -0.050273    1.284861
 C    3.175366   -0.489185   -0.758764
 C    3.210598    0.073804    1.941585
 C    4.379788   -0.360836   -0.096647
 C    4.404906   -0.070860    1.256716
 H   -0.399315    4.090727    1.191459
 O    1.242368    2.371975    0.070374
 H   -1.090923   -2.377286    1.024266
 H   -2.213253   -0.119711   -2.417505
 H   -2.838155   -4.039910    0.504905
 H   -3.945699   -1.790282   -2.951610
 H   -4.267889   -3.746465   -1.484013
 H    1.079450    0.040826    1.837473
 H    3.161530   -0.716940   -1.816306
 H    3.217838    0.279704    3.002163
 H    5.303855   -0.497953   -0.639222
 H   -2.942723    0.766936    0.802080
 H   -2.748510    3.313800    1.609043
 H    5.346474    0.032283    1.774693
}
memory 20GB
set_num_threads(5)
psi4_io.set_default_path("/scratch/liuchw/Psi4-1_7_Index_0-farH_in17")
set freeze_core True
E, wfn = energy('wb97x-d/6-311+G*',return_wfn=True)
oeprop(wfn,"WIBERG_LOWDIN_INDICES")
clean()
--------------------------------------------------------------------------

    Molecular point group: c1

    Geometry (in Angstrom), charge = 0, multiplicity = 1:

       Center              X                  Y                   Z               Mass
    ------------   -----------------  -----------------  -----------------  -----------------
         H            0.868767767224    -0.449331259875    -1.789364064762     1.007825032230
         N            0.767537767224    -0.549893259875    -0.785637064762    14.003074004430
         C           -0.491931232776    -0.122964259875    -0.365589064762    12.000000000000
         C           -1.568051232776    -1.098844259875    -0.678273064762    12.000000000000
         C            1.953589767224    -0.250483259875    -0.110854064762    12.000000000000
         C           -0.795970232776     1.043770740125     0.257650935238    12.000000000000
         C           -2.098367232776     1.442219740125     0.743527935238    12.000000000000
         N           -0.730454232776     3.196940740125     0.955255935238    14.003074004430
         C            0.075911767224     2.232174740125     0.398619935238    12.000000000000
         C           -2.011095232776     2.717824740125     1.158424935238    12.000000000000
         C           -1.739882232776    -2.212854259875     0.134961935238    12.000000000000
         C           -2.367156232776    -0.944167259875    -1.804291064762    12.000000000000
         C           -2.719693232776    -3.143664259875    -0.159766064762    12.000000000000
         C           -3.342573232776    -1.880305259875    -2.099405064762    12.000000000000
         C           -3.521851232776    -2.979369259875    -1.276696064762    12.000000000000
         C            1.986057767224    -0.012379259875     1.261664935238    12.000000000000
         C            3.158937767224    -0.451291259875    -0.781960064762    12.000000000000
         C            3.194169767224     0.111697740125     1.918388935238    12.000000000000
         C            4.363359767224    -0.322942259875    -0.119843064762    12.000000000000
         C            4.388477767224    -0.032966259875     1.233519935238    12.000000000000
         H           -0.415743232776     4.128620740125     1.168262935238     1.007825032230
         O            1.225939767224     2.409868740125     0.047177935238    15.994914619570
         H           -1.107351232776    -2.339392259875     1.001069935238     1.007825032230
         H           -2.229681232776    -0.081817259875    -2.440701064762     1.007825032230
         H           -2.854583232776    -4.002016259875     0.481708935238     1.007825032230
         H           -3.962127232776    -1.752388259875    -2.974806064762     1.007825032230
         H           -4.284317232776    -3.708571259875    -1.507209064762     1.007825032230
         H            1.063021767224     0.078719740125     1.814276935238     1.007825032230
         H            3.145101767224    -0.679046259875    -1.839502064762     1.007825032230
         H            3.201409767224     0.317597740125     2.978966935238     1.007825032230
         H            5.287426767224    -0.460059259875    -0.662418064762     1.007825032230
         H           -2.959151232776     0.804829740125     0.778883935238     1.007825032230
         H           -2.764938232776     3.351693740125     1.585846935238     1.007825032230
         H            5.330045767224     0.070176740125     1.751496935238     1.007825032230

  Charge       = 0
  Multiplicity = 1
  Basis Set: 6-311+G*
    Blend: 6-311+G*
  Basis Set: (6-311+G* AUX)
    Blend: HEAVY-AUG-CC-PVTZ-JKFIT

    Orbital Energies [Eh]
    ---------------------

    Doubly Occupied:

       1A    -19.214303     2A    -14.469240     3A    -14.461793
       4A    -10.386688     5A    -10.353488     6A    -10.329801
       7A    -10.321227     8A    -10.307329     9A    -10.300470
      10A    -10.298933    11A    -10.297411    12A    -10.297115
      13A    -10.296552    14A    -10.296016    15A    -10.280870
      16A    -10.275496    17A    -10.274382    18A    -10.273256
      19A    -10.270589    20A    -10.266499    21A     -1.149016
      22A     -1.067772    23A     -1.066285    24A     -0.979940
      25A     -0.948209    26A     -0.915303    27A     -0.875288
      28A     -0.862018    29A     -0.842403    30A     -0.836427
      31A     -0.819949    32A     -0.772466    33A     -0.717352
      34A     -0.714701    35A     -0.706582    36A     -0.697663
      37A     -0.687093    38A     -0.651450    39A     -0.625410
      40A     -0.620731    41A     -0.605013    42A     -0.586001
      43A     -0.571336    44A     -0.559474    45A     -0.552977
      46A     -0.537112    47A     -0.528795    48A     -0.524243
      49A     -0.521609    50A     -0.518756    51A     -0.517067
      52A     -0.507502    53A     -0.499760    54A     -0.493113
      55A     -0.470109    56A     -0.462508    57A     -0.444910
      58A     -0.441585    59A     -0.433079    60A     -0.422004
      61A     -0.418678    62A     -0.405001    63A     -0.373778
      64A     -0.345514    65A     -0.341413    66A     -0.339484
      67A     -0.319941    68A     -0.291924    69A     -0.267413

  @DF-RKS Final Energy:  -840.84024034614606

   => Energetics <=

    Nuclear Repulsion Energy =           1437.6615556479300722
    One-Electron Energy =               -3994.4908215446071154
    Two-Electron Energy =                1798.7930217851383077
    DFT Exchange-Correlation Energy =     -82.7794950730272063
    Empirical Dispersion Energy =          -0.0245011615800048
    VV10 Nonlocal Energy =                  0.0000000000000000
    Total Energy =                       -840.8402403461459471
 Dipole X            :          0.1718164           -1.5711525           -1.3993361
 Dipole Y            :          4.4900823           -4.4218871            0.0681953
 Dipole Z            :         -0.3597344            0.3245795           -0.0351550
 Magnitude           :                                                    1.4014379
*** Psi4 exiting successfully. Buy a developer a beer!
