                               Psi4 1.6 release

  ==> Input File <==

--------------------------------------------------------------------------
molecule {
0 1
 H    0.778602   -1.123225   -1.286270
 N    0.778018   -0.848228   -0.308216
 C   -0.461357   -0.336953    0.010104
 C   -1.555132   -1.199888   -0.518844
 C    2.029916   -0.354754    0.071081
 C   -0.811321    0.871706    0.542557
 C   -2.167244    1.241128    0.887652
 N   -0.909625    3.071846    1.065119
 C   -0.022172    2.114885    0.628481
 C   -2.176742    2.545377    1.214527
 C   -1.925877   -2.366846    0.138007
 C   -2.172993   -0.863273   -1.717552
 C   -2.921731   -3.173103   -0.384663
 C   -3.163242   -1.674966   -2.240999
 C   -3.540812   -2.828906   -1.574487
 C    2.232817    0.273690    1.300526
 C    3.144590   -0.830008   -0.620061
 C    3.513221    0.574041    1.723657
 C    4.421647   -0.517282   -0.199148
 C    4.611761    0.204731    0.967197
 H   -0.656481    4.035700    1.202196
 O    1.123767    2.355152    0.288574
 H   -1.437558   -2.631763    1.064189
 H   -1.880516    0.042577   -2.229272
 H   -3.213036   -4.073331    0.136109
 H   -3.640795   -1.406720   -3.171851
 H   -4.316292   -3.459510   -1.983350
 H    1.392669    0.495645    1.937302
 H    3.001333   -1.400751   -1.528693
 H    3.652670    1.088075    2.663079
 H    5.271515   -0.859861   -0.771311
 H   -2.996069    0.562033    0.918044
 H   -2.989786    3.166370    1.539672
 H    5.609650    0.449409    1.298705
}
memory 20GB
set_num_threads(5)
psi4_io.set_default_path("/scratch/liuchw/Psi4-1_7_Index_0-farH_in17")
set freeze_core True
E, wfn = energy('wb97x-d/6-311+G*',return_wfn=True)
oeprop(wfn,"WIBERG_LOWDIN_INDICES")
clean()
--------------------------------------------------------------------------

    Molecular point group: c1

    Geometry (in Angstrom), charge = 0, multiplicity = 1:

       Center              X                  Y                   Z               Mass
    ------------   -----------------  -----------------  -----------------  -----------------
         H            0.766697235677    -1.076708420288    -1.353943717578     1.007825032230
         N            0.766113235677    -0.801711420288    -0.375889717578    14.003074004430
         C           -0.473261764323    -0.290436420288    -0.057569717578    12.000000000000
         C           -1.567036764323    -1.153371420288    -0.586517717578    12.000000000000
         C            2.018011235677    -0.308237420288     0.003407282422    12.000000000000
         C           -0.823225764323     0.918222579712     0.474883282422    12.000000000000
         C           -2.179148764323     1.287644579712     0.819978282422    12.000000000000
         N           -0.921529764323     3.118362579712     0.997445282422    14.003074004430
         C           -0.034076764323     2.161401579712     0.560807282422    12.000000000000
         C           -2.188646764323     2.591893579712     1.146853282422    12.000000000000
         C           -1.937781764323    -2.320329420288     0.070333282422    12.000000000000
         C           -2.184897764323    -0.816756420288    -1.785225717578    12.000000000000
         C           -2.933635764323    -3.126586420288    -0.452336717578    12.000000000000
         C           -3.175146764323    -1.628449420288    -2.308672717578    12.000000000000
         C           -3.552716764323    -2.782389420288    -1.642160717578    12.000000000000
         C            2.220912235677     0.320206579712     1.232852282422    12.000000000000
         C            3.132685235677    -0.783491420288    -0.687734717578    12.000000000000
         C            3.501316235677     0.620557579712     1.655983282422    12.000000000000
         C            4.409742235677    -0.470765420288    -0.266821717578    12.000000000000
         C            4.599856235677     0.251247579712     0.899523282422    12.000000000000
         H           -0.668385764323     4.082216579712     1.134522282422     1.007825032230
         O            1.111862235677     2.401668579712     0.220900282422    15.994914619570
         H           -1.449462764323    -2.585246420288     0.996515282422     1.007825032230
         H           -1.892420764323     0.089093579712    -2.296945717578     1.007825032230
         H           -3.224940764323    -4.026814420288     0.068435282422     1.007825032230
         H           -3.652699764323    -1.360203420288    -3.239524717578     1.007825032230
         H           -4.328196764323    -3.412993420288    -2.051023717578     1.007825032230
         H            1.380764235677     0.542161579712     1.869628282422     1.007825032230
         H            2.989428235677    -1.354234420288    -1.596366717578     1.007825032230
         H            3.640765235677     1.134591579712     2.595405282422     1.007825032230
         H            5.259610235677    -0.813344420288    -0.838984717578     1.007825032230
         H           -3.007973764323     0.608549579712     0.850370282422     1.007825032230
         H           -3.001690764323     3.212886579712     1.471998282422     1.007825032230
         H            5.597745235677     0.495925579712     1.231031282422     1.007825032230

  Charge       = 0
  Multiplicity = 1
  Basis Set: 6-311+G*
    Blend: 6-311+G*
  Basis Set: (6-311+G* AUX)
    Blend: HEAVY-AUG-CC-PVTZ-JKFIT

    Orbital Energies [Eh]
    ---------------------

    Doubly Occupied:

       1A    -19.204436     2A    -14.478871     3A    -14.462430
       4A    -10.379126     5A    -10.359415     6A    -10.323942
       7A    -10.319395     8A    -10.311475     9A    -10.302382
      10A    -10.301397    11A    -10.300678    12A    -10.300151
      13A    -10.299711    14A    -10.292951    15A    -10.279626
      16A    -10.277225    17A    -10.275737    18A    -10.274472
      19A    -10.274071    20A    -10.270791    21A     -1.140785
      22A     -1.078136    23A     -1.059644    24A     -0.984039
      25A     -0.952157    26A     -0.914734    27A     -0.874867
      28A     -0.865564    29A     -0.844779    30A     -0.839694
      31A     -0.816901    32A     -0.771357    33A     -0.720959
      34A     -0.719497    35A     -0.709442    36A     -0.698757
      37A     -0.682396    38A     -0.652323    39A     -0.631412
      40A     -0.620394    41A     -0.599587    42A     -0.585847
      43A     -0.576908    44A     -0.563529    45A     -0.552398
      46A     -0.534207    47A     -0.525985    48A     -0.523112
      49A     -0.522838    50A     -0.516752    51A     -0.515680
      52A     -0.502762    53A     -0.500640    54A     -0.494494
      55A     -0.473888    56A     -0.466331    57A     -0.447468
      58A     -0.444869    59A     -0.434693    60A     -0.425400
      61A     -0.419276    62A     -0.411947    63A     -0.364952
      64A     -0.350024    65A     -0.345632    66A     -0.339180
      67A     -0.318443    68A     -0.291293    69A     -0.261882

  @DF-RKS Final Energy:  -840.83766307953408

   => Energetics <=

    Nuclear Repulsion Energy =           1433.7310714439024650
    One-Electron Energy =               -3986.5279817109867508
    Two-Electron Energy =                1794.7640178015969923
    DFT Exchange-Correlation Energy =     -82.7805187127580382
    Empirical Dispersion Energy =          -0.0242519012889302
    VV10 Nonlocal Energy =                  0.0000000000000000
    Total Energy =                       -840.8376630795340816
 Dipole X            :          0.1767883           -1.4854957           -1.3087074
 Dipole Y            :          3.8016058           -4.1801649           -0.3785591
 Dipole Z            :          0.8589794           -1.0871614           -0.2281819
 Magnitude           :                                                    1.3813359
*** Psi4 exiting successfully. Buy a developer a beer!
