   * xtb version 6.5.0 (97a52f5) compiled by 'conda@d2599ee0d4f4' on 2022-05-15
          program call               : /home/liuchw/anaconda3/envs/xtbenv/bin/xtb --gfn 2 --chrg 0 --uhf 0 1_7_Index_0-opt-2-3-166_preQMOPTprefit_xyzformat.xyz --opt --input xtb-opt-2-3-166_constr.txt

   ID    Z sym.   atoms
    1    1 H      1, 21, 23-34
    2    7 N      2, 8
    3    6 C      3-7, 9-20
    4    8 O      22
constraining angle 1 2 3 4 to  166.0576071°, actual value:  166.0576071°
constraining angle 5 2 3 4 to  303.0165771°, actual value:  -56.9834229°
constraining angle 1 2 5 17 to  332.0727660°, actual value:  -27.9272340°
constraining angle 3 2 5 17 to  195.0055620°, actual value: -164.9944380°
constraining angle 2 3 4 12 to  262.2242806°, actual value:  -97.7757194°
constraining angle 2 3 6 7 to  183.0135260°, actual value: -176.9864740°

          :  Hamiltonian                  GFN2-xTB          :
 * total energy  :   -53.4142396 Eh     change       -0.3292726E-09 Eh
 * total energy  :   -53.4282779 Eh     change       -0.1403830E-01 Eh
 * total energy  :   -53.4314538 Eh     change       -0.3175896E-02 Eh
 * total energy  :   -53.4315579 Eh     change       -0.1040422E-03 Eh
 * total energy  :   -53.4335752 Eh     change       -0.2017290E-02 Eh
 * total energy  :   -53.4338157 Eh     change       -0.2405028E-03 Eh
 * total energy  :   -53.4340294 Eh     change       -0.2136802E-03 Eh
 * total energy  :   -53.4341582 Eh     change       -0.1288122E-03 Eh
 * total energy  :   -53.4342237 Eh     change       -0.6548445E-04 Eh
 * total energy  :   -53.4342626 Eh     change       -0.3895157E-04 Eh
 * total energy  :   -53.4342843 Eh     change       -0.2166412E-04 Eh
 * total energy  :   -53.4343016 Eh     change       -0.1731299E-04 Eh
 * total energy  :   -53.4343124 Eh     change       -0.1084011E-04 Eh
 * total energy  :   -53.4343227 Eh     change       -0.1028073E-04 Eh
 * total energy  :   -53.4343294 Eh     change       -0.6689972E-05 Eh
 * total energy  :   -53.4343331 Eh     change       -0.3711415E-05 Eh
   *** GEOMETRY OPTIMIZATION CONVERGED AFTER 16 ITERATIONS ***

 final structure:
================
34
 xtb: 6.5.0 (97a52f5)
H            1.18762460921676        1.43390880582782       -0.62530443889977
N            0.93007168860061        0.43931716524808       -0.51976318400687
C           -0.40032260896621        0.37894970584116       -0.22604498797379
C           -1.18870559661828       -0.87703470272044       -0.29998609306029
C            2.02199297742938       -0.25260509050073        0.00325937669337
C           -1.10426714766576        1.55091930784684       -0.10249405458073
C           -2.48486574096270        1.75408457332630        0.25358178722379
N           -1.49553438599106        3.75787311832517        0.14517089896411
C           -0.49314808053518        2.87889963101251       -0.15108142102181
C           -2.67737166717799        3.07905080651128        0.39643688837845
C           -1.38642025690463       -1.70160718543945        0.80326159796159
C           -1.93422872557540       -1.10513557837370       -1.45219623105742
C           -2.23449520082471       -2.79196532355266        0.71963416530770
C           -2.77495122604562       -2.20003372419584       -1.53653300407852
C           -2.92028093610309       -3.05147428636685       -0.45443471168700
C            1.93910874596410       -1.47597510244112        0.66363461794708
C            3.28622045536814        0.26972010985629       -0.28437711756944
C            3.08975477045987       -2.11272721567467        1.09347256181275
C            4.42776072760313       -0.37383910315671        0.14554082721333
C            4.33644285557659       -1.56770834253437        0.84431895959820
H           -1.37670989811831        4.75591031022302        0.19197355063664
O            0.67035337550219        3.18171302948379       -0.41501521148580
H           -0.89920379345499       -1.47302726714625        1.74075193395093
H           -1.82686871969743       -0.43457379151681       -2.29196174587202
H           -2.37164574863707       -3.43074882811967        1.57987874085083
H           -3.33233946385495       -2.37789163969264       -2.44429261286021
H           -3.58186919903248       -3.90248670582364       -0.51859805490832
H            0.98291288313403       -1.93662704489343        0.83933738801016
H            3.35656875946342        1.20372469220680       -0.82273785652098
H            3.00606184255651       -3.05208352524522        1.62044492380557
H            5.39556440141679        0.05310695760099       -0.07217649118216
H           -3.21038102336833        0.97637705611580        0.38540215718088
H           -3.56277799877282        3.61888386179934        0.67163983108662
H            5.22934431601505       -2.07189368383084        1.18131404014340

          :  Hamiltonian                  GFN2-xTB          :
         :: total energy             -53.434333101922 Eh    ::
         :: gradient norm              0.000444859907 Eh/a0 ::
         :: HOMO-LUMO gap              2.173344296085 eV    ::
         :: SCC energy               -54.355597376029 Eh    ::
         :: -> dispersion             -0.038422243569 Eh    ::
         :: repulsion energy           0.920942445018 Eh    ::

    * Orbital Energies and Occupations

         #    Occupation            Energy/Eh            Energy/eV
      -------------------------------------------------------------
         1        2.0000           -0.6883371             -18.7306
       ...           ...                  ...                  ...
        37        2.0000           -0.4597372             -12.5101
        38        2.0000           -0.4554490             -12.3934
        39        2.0000           -0.4376652             -11.9095
        40        2.0000           -0.4345748             -11.8254
        41        2.0000           -0.4323955             -11.7661
        42        2.0000           -0.4239541             -11.5364
        43        2.0000           -0.4184562             -11.3868
        44        2.0000           -0.4130731             -11.2403
        45        2.0000           -0.4080810             -11.1044
        46        2.0000           -0.4034835             -10.9793
        47        2.0000           -0.3877655             -10.5516
        48        2.0000           -0.3796952             -10.3320
        49        2.0000           -0.3518311              -9.5738 (HOMO)
        50                         -0.2719622              -7.4005 (LUMO)
        51                         -0.2349229              -6.3926
        52                         -0.2328953              -6.3374
        53                         -0.2212298              -6.0200
        54                         -0.2072820              -5.6404
        55                         -0.1726481              -4.6980
        56                         -0.1208042              -3.2872
        57                         -0.1051781              -2.8620
        58                         -0.0859764              -2.3395
        59                          0.0246264               0.6701
        60                          0.0390745               1.0633
       ...                                ...                  ...
        94                          0.7267635              19.7762
      -------------------------------------------------------------
                  HL-Gap            0.0798689 Eh            2.1733 eV

     #   Z          covCN         q      C6AA      α(0)
     1   1 H        0.859     0.230     0.967     1.540
     2   7 N        2.702    -0.148    24.212     7.308
     3   6 C        2.887     0.083    26.156     8.385
     4   6 C        2.979     0.013    27.726     8.637
     5   6 C        2.902     0.072    26.392     8.423
     6   6 C        3.094    -0.070    29.630     8.921
     7   6 C        2.982    -0.069    29.715     8.942
     8   7 N        2.774    -0.145    24.132     7.296
     9   6 C        2.872     0.257    22.696     7.810
    10   6 C        2.990     0.004    27.930     8.669
    11   6 C        2.923    -0.029    28.733     8.790
    12   6 C        2.928    -0.027    28.683     8.783
    13   6 C        2.919    -0.029    28.721     8.788
    14   6 C        2.919    -0.027    28.669     8.780
    15   6 C        2.920    -0.028    28.711     8.787
    16   6 C        2.921    -0.054    29.345     8.883
    17   6 C        2.929    -0.052    29.283     8.874
    18   6 C        2.921    -0.030    28.738     8.791
    19   6 C        2.919    -0.027    28.678     8.782
    20   6 C        2.919    -0.038    28.947     8.823
    21   1 H        0.860     0.171     1.266     1.763
    22   8 O        0.857    -0.482    23.389     6.484
    23   1 H        0.926     0.036     2.497     2.471
    24   1 H        0.926     0.037     2.486     2.466
    25   1 H        0.926     0.035     2.514     2.479
    26   1 H        0.926     0.037     2.492     2.469
    27   1 H        0.926     0.035     2.517     2.481
    28   1 H        0.926     0.040     2.451     2.448
    29   1 H        0.926     0.043     2.411     2.428
    30   1 H        0.926     0.031     2.572     2.508
    31   1 H        0.926     0.034     2.523     2.484
    32   1 H        0.926     0.031     2.565     2.505
    33   1 H        0.926     0.037     2.494     2.469
    34   1 H        0.926     0.031     2.575     2.509

Wiberg/Mayer (AO) data.
largest (>0.10) Wiberg bond orders for each atom

     #   Z sym  total        # sym  WBO       # sym  WBO       # sym  WBO
 ---------------------------------------------------------------------------
     1   1 H    0.946 --     2 N    0.864
     2   7 N    3.492 --     3 C    1.229     5 C    1.086     1 H    0.864
     3   6 C    3.968 --     6 C    1.479     2 N    1.229     4 C    1.002
     4   6 C    3.987 --    11 C    1.403    12 C    1.397     3 C    1.002
                            15 C    0.111
     5   6 C    3.961 --    16 C    1.368    17 C    1.349     2 N    1.086
     6   6 C    3.964 --     3 C    1.479     7 C    1.155     9 C    1.067
     7   6 C    3.978 --    10 C    1.698     6 C    1.155    32 H    0.972
     8   7 N    3.514 --     9 C    1.183    10 C    1.125    21 H    0.942
                            22 O    0.143
     9   6 C    3.947 --    22 O    1.568     8 N    1.183     6 C    1.067
    10   6 C    3.937 --     7 C    1.698     8 N    1.125    33 H    0.970
    11   6 C    3.989 --    13 C    1.442     4 C    1.403    23 H    0.966
                            14 C    0.110
    12   6 C    3.990 --    14 C    1.445     4 C    1.397    24 H    0.970
                            13 C    0.111
    13   6 C    3.991 --    11 C    1.442    15 C    1.439    25 H    0.970
                            12 C    0.111
    14   6 C    3.991 --    12 C    1.445    15 C    1.437    26 H    0.970
                            11 C    0.110
    15   6 C    3.991 --    13 C    1.439    14 C    1.437    27 H    0.971
                             4 C    0.111
    16   6 C    3.985 --    18 C    1.447     5 C    1.368    28 H    0.959
                            19 C    0.103
    17   6 C    3.984 --    19 C    1.470     5 C    1.349    29 H    0.966
                            18 C    0.106
    18   6 C    3.992 --    16 C    1.447    20 C    1.438    30 H    0.971
                            17 C    0.106
    19   6 C    3.992 --    17 C    1.470    20 C    1.420    31 H    0.971
                            16 C    0.103
    20   6 C    3.973 --    18 C    1.438    19 C    1.420    34 H    0.972
    21   1 H    0.970 --     8 N    0.942
    22   8 O    1.979 --     9 C    1.568     8 N    0.143
    23   1 H    0.999 --    11 C    0.966
    24   1 H    0.999 --    12 C    0.970
    25   1 H    0.998 --    13 C    0.970
    26   1 H    0.998 --    14 C    0.970
    27   1 H    0.998 --    15 C    0.971
    28   1 H    0.998 --    16 C    0.959
    29   1 H    0.998 --    17 C    0.966
    30   1 H    0.998 --    18 C    0.971
    31   1 H    0.998 --    19 C    0.971
    32   1 H    0.999 --     7 C    0.972
    33   1 H    0.998 --    10 C    0.970
    34   1 H    0.999 --    20 C    0.972
 ---------------------------------------------------------------------------

molecular dipole:
                 x           y           z       tot (Debye)
 q only:       -0.706      -0.769       0.151
   full:       -0.942      -0.479       0.296       2.790

           -------------------------------------------------
          | TOTAL ENERGY              -53.434333101922 Eh   |
          | GRADIENT NORM               0.000444859907 Eh/α |
          | HOMO-LUMO GAP               2.173344296085 eV   |
           -------------------------------------------------

 * finished run on 2023/11/18 at 09:06:17.861
