   * xtb version 6.5.0 (97a52f5) compiled by 'conda@d2599ee0d4f4' on 2022-05-15
          program call               : /home/liuchw/anaconda3/envs/xtbenv/bin/xtb --gfn 2 --chrg 0 --uhf 0 1_7_Index_0-opt-2-3-106_preQMOPTprefit_xyzformat.xyz --opt --input xtb-opt-2-3-106_constr.txt

   ID    Z sym.   atoms
    1    1 H      1, 21, 23-34
    2    7 N      2, 8
    3    6 C      3-7, 9-20
    4    8 O      22
constraining angle 1 2 3 4 to  106.1573217°, actual value:  106.1573217°
constraining angle 5 2 3 4 to  243.0546031°, actual value: -116.9453969°
constraining angle 1 2 5 17 to  331.9512001°, actual value:  -28.0487999°
constraining angle 3 2 5 17 to  195.0365364°, actual value: -164.9634636°
constraining angle 2 3 4 12 to  262.1499368°, actual value:  -97.8500632°
constraining angle 2 3 6 7 to  183.1073076°, actual value: -176.8926924°

          :  Hamiltonian                  GFN2-xTB          :
 * total energy  :   -53.3959086 Eh     change       -0.2111882E-08 Eh
 * total energy  :   -53.4095602 Eh     change       -0.1365160E-01 Eh
 * total energy  :   -53.4128291 Eh     change       -0.3268881E-02 Eh
 * total energy  :   -53.4140468 Eh     change       -0.1217667E-02 Eh
 * total energy  :   -53.4148431 Eh     change       -0.7963355E-03 Eh
 * total energy  :   -53.4153076 Eh     change       -0.4644972E-03 Eh
 * total energy  :   -53.4157893 Eh     change       -0.4816708E-03 Eh
 * total energy  :   -53.4163009 Eh     change       -0.5116568E-03 Eh
 * total energy  :   -53.4168636 Eh     change       -0.5626329E-03 Eh
 * total energy  :   -53.4173787 Eh     change       -0.5151228E-03 Eh
 * total energy  :   -53.4187850 Eh     change       -0.1319881E-04 Eh
 * total energy  :   -53.4187908 Eh     change       -0.5835404E-05 Eh
 * total energy  :   -53.4187964 Eh     change       -0.5570061E-05 Eh
 * total energy  :   -53.4187993 Eh     change       -0.2906384E-05 Eh
 * total energy  :   -53.4188032 Eh     change       -0.3894493E-05 Eh
 * total energy  :   -53.4188071 Eh     change       -0.3869656E-05 Eh
 * total energy  :   -53.4188089 Eh     change       -0.1859244E-05 Eh
 * total energy  :   -53.4188110 Eh     change       -0.2038507E-05 Eh
 * total energy  :   -53.4188124 Eh     change       -0.1447082E-05 Eh
   *** GEOMETRY OPTIMIZATION CONVERGED AFTER 28 ITERATIONS ***

 final structure:
================
34
 xtb: 6.5.0 (97a52f5)
H            0.94274835848453        0.27402981759830       -1.89850603977677
N            0.77017170866787       -0.22180445694490       -1.03220739662896
C           -0.51202664381796        0.03949448591136       -0.49347899234700
C           -1.48549898792149       -1.06836028489619       -0.63461477771824
C            1.88637456683016       -0.25202355969256       -0.20026448427774
C           -0.84529972668454        1.21856320520767        0.07194641054528
C           -2.08343727633457        1.60360036320917        0.71144421184429
N           -0.70683072889725        3.37160511822659        0.76743728394677
C            0.03642266342326        2.41536370256417        0.11982131875244
C           -1.95160226968783        2.87790791270726        1.11657388434323
C           -1.44134605592012       -2.17085840373489        0.21070873642198
C           -2.40516396775236       -1.04622617340939       -1.67777469593074
C           -2.32819437248554       -3.21798688785183        0.03507694343514
C           -3.28629929694596       -2.09797371938450       -1.85362112405903
C           -3.25166021341564       -3.18432939130366       -0.99591713674907
C            1.77468481222857       -0.45081305833235        1.17399019603166
C            3.15808933538142       -0.19408239434797       -0.76902875818013
C            2.90743006510062       -0.57791996112564        1.95499169130855
C            4.28363460333770       -0.32452947146562        0.01814531590917
C            4.16682351027684       -0.51838089663017        1.38494297789059
H           -0.37549647106868        4.30138148353874        0.96303420092296
O            1.14582842173028        2.57981278603570       -0.34162438002513
H           -0.71450121069492       -2.20536007130710        1.00778799897837
H           -2.43243574706483       -0.19621144247030       -2.34408602076163
H           -2.29304292402868       -4.06630490924330        0.70261119455820
H           -3.99877392530204       -2.07077034097670       -2.66496625752710
H           -3.93974856325528       -4.00512325404294       -1.13401853836431
H            0.79744069216522       -0.48955016465335        1.63387075607697
H            3.25452284492910       -0.03313711387415       -1.83321527896253
H            2.80201162898589       -0.72350839300074        3.02079331590283
H            5.26155320196555       -0.27090350442006       -0.43814410469233
H           -2.93024492696195        0.96074467639364        0.84347571724071
H           -2.65162709251402        3.50406287563020        1.63735047590355
H            5.04889096724622       -0.61740654391409        1.99952533599400

          :  Hamiltonian                  GFN2-xTB          :
         :: total energy             -53.418812414923 Eh    ::
         :: gradient norm              0.000559178694 Eh/a0 ::
         :: HOMO-LUMO gap              1.726166905291 eV    ::
         :: SCC energy               -54.344154803273 Eh    ::
         :: -> dispersion             -0.039224365617 Eh    ::
         :: repulsion energy           0.924935149802 Eh    ::

    * Orbital Energies and Occupations

         #    Occupation            Energy/Eh            Energy/eV
      -------------------------------------------------------------
         1        2.0000           -0.7020824             -19.1046
       ...           ...                  ...                  ...
        37        2.0000           -0.4628081             -12.5937
        38        2.0000           -0.4403184             -11.9817
        39        2.0000           -0.4387235             -11.9383
        40        2.0000           -0.4277893             -11.6407
        41        2.0000           -0.4231466             -11.5144
        42        2.0000           -0.4185257             -11.3887
        43        2.0000           -0.4135417             -11.2530
        44        2.0000           -0.4107780             -11.1778
        45        2.0000           -0.4065741             -11.0634
        46        2.0000           -0.3945593             -10.7365
        47        2.0000           -0.3877795             -10.5520
        48        2.0000           -0.3762683             -10.2388
        49        2.0000           -0.3504829              -9.5371 (HOMO)
        50                         -0.2870474              -7.8110 (LUMO)
        51                         -0.2330437              -6.3414
        52                         -0.2315759              -6.3015
        53                         -0.2054637              -5.5910
        54                         -0.1953585              -5.3160
        55                         -0.1838732              -5.0034
        56                         -0.1348527              -3.6695
        57                         -0.1033208              -2.8115
        58                         -0.0719907              -1.9590
        59                          0.0170013               0.4626
        60                          0.0354927               0.9658
       ...                                ...                  ...
        94                          0.7480631              20.3558
      -------------------------------------------------------------
                  HL-Gap            0.0634355 Eh            1.7262 eV

     #   Z          covCN         q      C6AA      α(0)
     1   1 H        0.860     0.176     1.236     1.741
     2   7 N        2.695    -0.191    25.147     7.448
     3   6 C        2.893     0.091    25.972     8.356
     4   6 C        2.978     0.010    27.782     8.646
     5   6 C        2.910     0.085    26.111     8.379
     6   6 C        3.074    -0.040    28.920     8.817
     7   6 C        2.971    -0.071    29.763     8.949
     8   7 N        2.767    -0.148    24.198     7.306
     9   6 C        2.852     0.274    22.385     7.755
    10   6 C        2.979     0.019    27.584     8.615
    11   6 C        2.924    -0.026    28.650     8.778
    12   6 C        2.925    -0.029    28.732     8.790
    13   6 C        2.920    -0.027    28.675     8.781
    14   6 C        2.919    -0.027    28.683     8.782
    15   6 C        2.920    -0.029    28.713     8.787
    16   6 C        2.923    -0.053    29.323     8.880
    17   6 C        2.925    -0.051    29.274     8.873
    18   6 C        2.920    -0.030    28.755     8.794
    19   6 C        2.920    -0.028    28.691     8.784
    20   6 C        2.919    -0.044    29.082     8.843
    21   1 H        0.860     0.175     1.241     1.745
    22   8 O        0.857    -0.424    22.158     6.311
    23   1 H        0.926     0.041     2.436     2.441
    24   1 H        0.926     0.032     2.552     2.498
    25   1 H        0.926     0.037     2.485     2.465
    26   1 H        0.926     0.036     2.500     2.473
    27   1 H        0.926     0.035     2.512     2.478
    28   1 H        0.926     0.016     2.790     2.612
    29   1 H        0.926     0.026     2.637     2.539
    30   1 H        0.926     0.024     2.673     2.557
    31   1 H        0.926     0.028     2.615     2.529
    32   1 H        0.926     0.042     2.426     2.436
    33   1 H        0.926     0.045     2.385     2.415
    34   1 H        0.926     0.024     2.671     2.556

Wiberg/Mayer (AO) data.
largest (>0.10) Wiberg bond orders for each atom

     #   Z sym  total        # sym  WBO       # sym  WBO       # sym  WBO
 ---------------------------------------------------------------------------
     1   1 H    0.968 --     2 N    0.914
     2   7 N    3.279 --     5 C    1.100     3 C    1.027     1 H    0.914
     3   6 C    3.974 --     6 C    1.649     2 N    1.027     4 C    1.004
     4   6 C    3.987 --    11 C    1.400    12 C    1.397     3 C    1.004
                            15 C    0.110
     5   6 C    3.967 --    16 C    1.360    17 C    1.351     2 N    1.100
     6   6 C    3.982 --     3 C    1.649     7 C    1.128     9 C    1.002
     7   6 C    3.978 --    10 C    1.717     6 C    1.128    32 H    0.971
     8   7 N    3.509 --     9 C    1.161    10 C    1.131    21 H    0.940
                            22 O    0.150
     9   6 C    3.946 --    22 O    1.680     8 N    1.161     6 C    1.002
    10   6 C    3.957 --     7 C    1.717     8 N    1.131    33 H    0.968
    11   6 C    3.988 --    13 C    1.444     4 C    1.400    23 H    0.968
                            14 C    0.112
    12   6 C    3.991 --    14 C    1.445     4 C    1.397    24 H    0.971
                            13 C    0.112
    13   6 C    3.991 --    11 C    1.444    15 C    1.439    25 H    0.970
                            12 C    0.112
    14   6 C    3.991 --    12 C    1.445    15 C    1.438    26 H    0.970
                            11 C    0.112
    15   6 C    3.990 --    13 C    1.439    14 C    1.438    27 H    0.971
                             4 C    0.110
    16   6 C    3.988 --    18 C    1.453     5 C    1.360    28 H    0.965
                            19 C    0.103
    17   6 C    3.987 --    19 C    1.465     5 C    1.351    29 H    0.968
                            18 C    0.106
    18   6 C    3.993 --    16 C    1.453    20 C    1.434    30 H    0.972
                            17 C    0.106
    19   6 C    3.992 --    17 C    1.465    20 C    1.424    31 H    0.971
                            16 C    0.103
    20   6 C    3.988 --    18 C    1.434    19 C    1.424    34 H    0.972
    21   1 H    0.968 --     8 N    0.940
    22   8 O    2.024 --     9 C    1.680     8 N    0.150
    23   1 H    0.998 --    11 C    0.968
    24   1 H    0.999 --    12 C    0.971
    25   1 H    0.997 --    13 C    0.970
    26   1 H    0.997 --    14 C    0.970
    27   1 H    0.998 --    15 C    0.971
    28   1 H    1.000 --    16 C    0.965
    29   1 H    0.999 --    17 C    0.968
    30   1 H    0.999 --    18 C    0.972
    31   1 H    0.999 --    19 C    0.971
    32   1 H    0.998 --     7 C    0.971
    33   1 H    0.997 --    10 C    0.968
    34   1 H    0.999 --    20 C    0.972
 ---------------------------------------------------------------------------

molecular dipole:
                 x           y           z       tot (Debye)
 q only:       -1.415      -0.255       0.044
   full:       -1.546       0.190       0.135       3.974

           -------------------------------------------------
          | TOTAL ENERGY              -53.418812414923 Eh   |
          | GRADIENT NORM               0.000559178694 Eh/α |
          | HOMO-LUMO GAP               1.726166905291 eV   |
           -------------------------------------------------

 * finished run on 2023/11/18 at 09:05:37.325
