   * xtb version 6.5.0 (97a52f5) compiled by 'conda@d2599ee0d4f4' on 2022-05-15
          program call               : /home/liuchw/anaconda3/envs/xtbenv/bin/xtb --gfn 2 --chrg 0 --uhf 0 1_7_Index_0-opt-2-3-346_preQMOPTprefit_xyzformat.xyz --opt --input xtb-opt-2-3-346_constr.txt

   ID    Z sym.   atoms
    1    1 H      1, 21, 23-34
    2    7 N      2, 8
    3    6 C      3-7, 9-20
    4    8 O      22
constraining angle 1 2 3 4 to  346.0270389°, actual value:  -13.9729611°
constraining angle 5 2 3 4 to  123.3173601°, actual value:  123.3173601°
constraining angle 1 2 5 17 to  332.1674166°, actual value:  -27.8325834°
constraining angle 3 2 5 17 to  195.1969849°, actual value: -164.8030151°
constraining angle 2 3 4 12 to  262.2182960°, actual value:  -97.7817040°
constraining angle 2 3 6 7 to  183.5289992°, actual value: -176.4710008°

          :  Hamiltonian                  GFN2-xTB          :
 * total energy  :   -53.3572490 Eh     change       -0.4234884E-08 Eh
 * total energy  :   -53.3756333 Eh     change       -0.1838433E-01 Eh
 * total energy  :   -53.3796809 Eh     change       -0.4047576E-02 Eh
 * total energy  :   -53.3799576 Eh     change       -0.2767556E-03 Eh
 * total energy  :   -53.3820565 Eh     change       -0.2098815E-02 Eh
 * total energy  :   -53.3827389 Eh     change       -0.6824821E-03 Eh
 * total energy  :   -53.3833989 Eh     change       -0.6599751E-03 Eh
 * total energy  :   -53.3842935 Eh     change       -0.8945567E-03 Eh
 * total energy  :   -53.3852311 Eh     change       -0.9375862E-03 Eh
 * total energy  :   -53.3867403 Eh     change       -0.1509218E-02 Eh
 * total energy  :   -53.4265119 Eh     change       -0.1849114E-04 Eh
 * total energy  :   -53.4265325 Eh     change       -0.2059909E-04 Eh
 * total energy  :   -53.4265483 Eh     change       -0.1581281E-04 Eh
 * total energy  :   -53.4265579 Eh     change       -0.9529762E-05 Eh
 * total energy  :   -53.4265686 Eh     change       -0.1077192E-04 Eh
 * total energy  :   -53.4265767 Eh     change       -0.8069960E-05 Eh
 * total energy  :   -53.4265808 Eh     change       -0.4114733E-05 Eh
 * total energy  :   -53.4265855 Eh     change       -0.4710237E-05 Eh
 * total energy  :   -53.4265868 Eh     change       -0.1274845E-05 Eh
   *** GEOMETRY OPTIMIZATION CONVERGED AFTER 51 ITERATIONS ***

 final structure:
================
34
 xtb: 6.5.0 (97a52f5)
H            0.62156567186907       -1.97381081546130        0.38821342770221
N            0.64867875991104       -0.99408455403540        0.65933461165309
C           -0.55420125618494       -0.38648181033898        0.37757217414733
C           -1.45412583979782       -1.15800880293348       -0.51674157380794
C            1.91974803104932       -0.45431428790575        0.42981377250477
C           -0.97614685404200        0.78573991267546        0.92507938986823
C           -2.25524133963655        1.42311015421868        0.71373527256507
N           -1.18251084865812        2.56430697221269        2.30646572962599
C           -0.29951706896100        1.55590611195980        1.98940987071862
C           -2.33348965054999        2.47564879493917        1.54702949080328
C           -2.23034573592076       -2.19967432600801       -0.02284704967921
C           -1.48786474074635       -0.86114042488144       -1.87431487157991
C           -3.03876248043766       -2.92890781995991       -0.87684460995644
C           -2.29795393409615       -1.59254236523460       -2.72466507760834
C           -3.07333101057786       -2.62679940350836       -2.22787407292147
C            2.13628526740567        0.88059433759148        0.10519990767140
C            3.00715705592639       -1.32582942416106        0.47672196533242
C            3.42216891838716        1.33584349793272       -0.11990809244697
C            4.28755307172876       -0.86136694488592        0.25366162620964
C            4.50286563950459        0.47552977633126       -0.03777394005333
H           -1.00508396335840        3.25545426073721        3.01553766351042
O            0.76996302501162        1.37563516236853        2.53905780897712
H           -2.20263101916843       -2.42740989930767        1.03290691994945
H           -0.88149064871009       -0.05286798323264       -2.25673028579618
H           -3.64332613006746       -3.73429668394802       -0.48672794932221
H           -2.32229285996291       -1.35524186302570       -3.77797208711696
H           -3.70444835728907       -3.19677585143916       -2.89337048688061
H            1.30421416057204        1.55721688378890        0.00464249158604
H            2.84141983413482       -2.37019390654563        0.70400242810000
H            3.57805578474526        2.37563403183536       -0.36682649312083
H            5.12035732532529       -1.54763964252949        0.30211340168397
H           -2.99180557675850        1.10189222088486        0.00454055385856
H           -3.12640622823604        3.18755550516758        1.67852280431085
H            5.50433599758644        0.84031618669658       -0.20890374049179

          :  Hamiltonian                  GFN2-xTB          :
         :: total energy             -53.426586815173 Eh    ::
         :: gradient norm              0.000465749517 Eh/a0 ::
         :: HOMO-LUMO gap              2.272021511731 eV    ::
         :: SCC energy               -54.352117733457 Eh    ::
         :: -> dispersion             -0.038853837027 Eh    ::
         :: repulsion energy           0.925191387080 Eh    ::

    * Orbital Energies and Occupations

         #    Occupation            Energy/Eh            Energy/eV
      -------------------------------------------------------------
         1        2.0000           -0.6822383             -18.5646
       ...           ...                  ...                  ...
        37        2.0000           -0.4559393             -12.4067
        38        2.0000           -0.4541812             -12.3589
        39        2.0000           -0.4384092             -11.9297
        40        2.0000           -0.4338593             -11.8059
        41        2.0000           -0.4276315             -11.6364
        42        2.0000           -0.4202270             -11.4350
        43        2.0000           -0.4174380             -11.3591
        44        2.0000           -0.4137302             -11.2582
        45        2.0000           -0.4126158             -11.2278
        46        2.0000           -0.3972340             -10.8093
        47        2.0000           -0.3794060             -10.3242
        48        2.0000           -0.3754459             -10.2164
        49        2.0000           -0.3505185              -9.5381 (HOMO)
        50                         -0.2670232              -7.2661 (LUMO)
        51                         -0.2370749              -6.4511
        52                         -0.2355884              -6.4107
        53                         -0.2149048              -5.8479
        54                         -0.2039904              -5.5509
        55                         -0.1681902              -4.5767
        56                         -0.1185814              -3.2268
        57                         -0.1071073              -2.9145
        58                         -0.0807240              -2.1966
        59                          0.0297927               0.8107
        60                          0.0408761               1.1123
       ...                                ...                  ...
        94                          0.7532528              20.4971
      -------------------------------------------------------------
                  HL-Gap            0.0834953 Eh            2.2720 eV

     #   Z          covCN         q      C6AA      α(0)
     1   1 H        0.860     0.169     1.282     1.774
     2   7 N        2.698    -0.135    23.920     7.264
     3   6 C        2.888     0.077    26.288     8.406
     4   6 C        2.982     0.002    27.968     8.675
     5   6 C        2.907     0.080    26.217     8.396
     6   6 C        3.075    -0.052    29.217     8.862
     7   6 C        2.979    -0.075    29.857     8.963
     8   7 N        2.774    -0.153    24.302     7.322
     9   6 C        2.851     0.268    22.493     7.773
    10   6 C        2.973     0.010    27.789     8.647
    11   6 C        2.923    -0.033    28.824     8.804
    12   6 C        2.924    -0.030    28.746     8.792
    13   6 C        2.919    -0.028    28.692     8.784
    14   6 C        2.919    -0.028    28.690     8.784
    15   6 C        2.920    -0.029    28.729     8.790
    16   6 C        2.921    -0.035    28.868     8.811
    17   6 C        2.927    -0.053    29.308     8.878
    18   6 C        2.921    -0.026    28.647     8.777
    19   6 C        2.920    -0.028    28.705     8.786
    20   6 C        2.919    -0.037    28.932     8.821
    21   1 H        0.860     0.170     1.273     1.767
    22   8 O        0.857    -0.438    22.458     6.354
    23   1 H        0.926     0.035     2.511     2.478
    24   1 H        0.926     0.035     2.522     2.483
    25   1 H        0.926     0.036     2.504     2.475
    26   1 H        0.926     0.036     2.502     2.474
    27   1 H        0.926     0.035     2.516     2.481
    28   1 H        0.926     0.038     2.480     2.463
    29   1 H        0.925     0.026     2.642     2.542
    30   1 H        0.926     0.034     2.535     2.490
    31   1 H        0.926     0.032     2.561     2.503
    32   1 H        0.926     0.031     2.572     2.508
    33   1 H        0.926     0.036     2.501     2.473
    34   1 H        0.926     0.031     2.572     2.508

Wiberg/Mayer (AO) data.
largest (>0.10) Wiberg bond orders for each atom

     #   Z sym  total        # sym  WBO       # sym  WBO       # sym  WBO
 ---------------------------------------------------------------------------
     1   1 H    0.971 --     2 N    0.934
     2   7 N    3.453 --     3 C    1.167     5 C    1.071     1 H    0.934
     3   6 C    3.970 --     6 C    1.547     2 N    1.167     4 C    0.996
     4   6 C    3.988 --    11 C    1.404    12 C    1.402     3 C    0.996
                            15 C    0.110
     5   6 C    3.962 --    16 C    1.369    17 C    1.360     2 N    1.071
     6   6 C    3.971 --     3 C    1.547     7 C    1.141     9 C    1.029
     7   6 C    3.977 --    10 C    1.702     6 C    1.141    32 H    0.972
     8   7 N    3.502 --     9 C    1.150    10 C    1.135    21 H    0.942
                            22 O    0.147
     9   6 C    3.947 --    22 O    1.653     8 N    1.150     6 C    1.029
    10   6 C    3.951 --     7 C    1.702     8 N    1.135    33 H    0.969
    11   6 C    3.988 --    13 C    1.444     4 C    1.404    23 H    0.970
                            14 C    0.112
    12   6 C    3.988 --    14 C    1.443     4 C    1.402    24 H    0.970
                            13 C    0.112
    13   6 C    3.991 --    11 C    1.444    15 C    1.439    25 H    0.970
                            12 C    0.112
    14   6 C    3.991 --    12 C    1.443    15 C    1.439    26 H    0.970
                            11 C    0.112
    15   6 C    3.991 --    13 C    1.439    14 C    1.439    27 H    0.971
                             4 C    0.110
    16   6 C    3.990 --    18 C    1.448     5 C    1.369    28 H    0.965
                            19 C    0.105
    17   6 C    3.984 --    19 C    1.461     5 C    1.360    29 H    0.968
                            18 C    0.106
    18   6 C    3.992 --    16 C    1.448    20 C    1.437    30 H    0.971
                            17 C    0.106
    19   6 C    3.991 --    17 C    1.461    20 C    1.425    31 H    0.971
                            16 C    0.105
    20   6 C    3.980 --    18 C    1.437    19 C    1.425    34 H    0.972
    21   1 H    0.970 --     8 N    0.942
    22   8 O    2.009 --     9 C    1.653     8 N    0.147
    23   1 H    0.999 --    11 C    0.970
    24   1 H    0.999 --    12 C    0.970
    25   1 H    0.998 --    13 C    0.970
    26   1 H    0.997 --    14 C    0.970
    27   1 H    0.998 --    15 C    0.971
    28   1 H    0.999 --    16 C    0.965
    29   1 H    0.999 --    17 C    0.968
    30   1 H    0.998 --    18 C    0.971
    31   1 H    0.998 --    19 C    0.971
    32   1 H    0.999 --     7 C    0.972
    33   1 H    0.998 --    10 C    0.969
    34   1 H    0.999 --    20 C    0.972
 ---------------------------------------------------------------------------

molecular dipole:
                 x           y           z       tot (Debye)
 q only:       -0.800      -0.536      -0.953
   full:       -1.051      -0.458      -0.996       3.860

           -------------------------------------------------
          | TOTAL ENERGY              -53.426586815173 Eh   |
          | GRADIENT NORM               0.000465749517 Eh/α |
          | HOMO-LUMO GAP               2.272021511731 eV   |
           -------------------------------------------------

 * finished run on 2023/11/18 at 09:10:44.315
