   * xtb version 6.5.0 (97a52f5) compiled by 'conda@d2599ee0d4f4' on 2022-05-15
          program call               : /home/liuchw/anaconda3/envs/xtbenv/bin/xtb --gfn 2 --chrg 0 --uhf 0 1_7_Index_0-opt-2-3-256_preQMOPTprefit_xyzformat.xyz --opt --input xtb-opt-2-3-256_constr.txt

   ID    Z sym.   atoms
    1    1 H      1, 21, 23-34
    2    7 N      2, 8
    3    6 C      3-7, 9-20
    4    8 O      22
constraining angle 1 2 3 4 to  255.7657609°, actual value: -104.2342391°
constraining angle 5 2 3 4 to   33.0717569°, actual value:   33.0717569°
constraining angle 1 2 5 17 to  332.0946928°, actual value:  -27.9053072°
constraining angle 3 2 5 17 to  195.0175184°, actual value: -164.9824816°
constraining angle 2 3 4 12 to  261.7333213°, actual value:  -98.2666787°
constraining angle 2 3 6 7 to  182.8815026°, actual value: -177.1184974°

          :  Hamiltonian                  GFN2-xTB          :
 * total energy  :   -53.3957803 Eh     change       -0.3188845E-09 Eh
 * total energy  :   -53.4121354 Eh     change       -0.1635511E-01 Eh
 * total energy  :   -53.4158485 Eh     change       -0.3713101E-02 Eh
 * total energy  :   -53.4169797 Eh     change       -0.1131174E-02 Eh
 * total energy  :   -53.4182871 Eh     change       -0.1307348E-02 Eh
 * total energy  :   -53.4189365 Eh     change       -0.6494641E-03 Eh
 * total energy  :   -53.4192246 Eh     change       -0.2880886E-03 Eh
 * total energy  :   -53.4194682 Eh     change       -0.2436274E-03 Eh
 * total energy  :   -53.4197094 Eh     change       -0.2411741E-03 Eh
 * total energy  :   -53.4199646 Eh     change       -0.2551800E-03 Eh
 * total energy  :   -53.4207841 Eh     change       -0.1448836E-04 Eh
 * total energy  :   -53.4207887 Eh     change       -0.4660315E-05 Eh
 * total energy  :   -53.4207925 Eh     change       -0.3739501E-05 Eh
 * total energy  :   -53.4207967 Eh     change       -0.4234998E-05 Eh
 * total energy  :   -53.4207992 Eh     change       -0.2513470E-05 Eh
 * total energy  :   -53.4208012 Eh     change       -0.1928690E-05 Eh
 * total energy  :   -53.4208039 Eh     change       -0.2791382E-05 Eh
 * total energy  :   -53.4208061 Eh     change       -0.2199876E-05 Eh
 * total energy  :   -53.4208084 Eh     change       -0.2232849E-05 Eh
   *** GEOMETRY OPTIMIZATION CONVERGED AFTER 29 ITERATIONS ***

 final structure:
================
34
 xtb: 6.5.0 (97a52f5)
H            1.04868512238281        1.20030765844733        1.18691659564668
N            0.93638320357565        0.73571102578769        0.29249847703534
C           -0.41184465996463        0.60894036369204       -0.01803896968777
C           -1.14342837769459       -0.68072056289024        0.09710055104648
C            1.92061173129031       -0.23392129787611        0.12207435993151
C           -1.14965254085488        1.74416402694237       -0.16747561344934
C           -2.56271254248909        1.86711346441830       -0.43073575874470
N           -1.71660584723972        3.93165185259564       -0.26030916712864
C           -0.62920392833041        3.12041187287523       -0.03703963119930
C           -2.85322309960484        3.17935058588880       -0.49393972371592
C           -1.53984281950515       -1.06527843110722        1.37374510224081
C           -1.39513734039395       -1.52986108137471       -0.97405479434015
C           -2.19776034702087       -2.26627962749948        1.56911194709443
C           -2.05478104136079       -2.72993032066759       -0.77590642350197
C           -2.45134901251480       -3.10377199447654        0.49655521058729
C            1.83766113334633       -1.28491250281766       -0.78767609204537
C            3.13441648505666       -0.02562973787302        0.78585871383320
C            2.91057571020622       -2.13915567139223       -0.96752762639766
C            4.20093019447721       -0.87899278550707        0.59797364313747
C            4.09280356507595       -1.95026404108875       -0.27494575289471
H           -1.67969253455700        4.93687837729499       -0.24104204802727
O            0.48586018246273        3.50796866127189        0.25772776616828
H           -1.34185211417800       -0.41405863123286        2.21322621140142
H           -1.12407667911800       -1.22392980489002       -1.97480634023112
H           -2.50877715419048       -2.54966305419616        2.56376325292788
H           -2.25401742158347       -3.37714944993451       -1.61728471807265
H           -2.96077136053984       -4.04313103602948        0.65140870465117
H            0.94180437951653       -1.43789837863029       -1.36191047347726
H            3.22518359817389        0.81417556213504        1.46057554755504
H            2.82017564180545       -2.95646111763889       -1.66821939114323
H            5.12555925886161       -0.70305003350034        1.12784281209850
H           -3.23697948540892        1.04642760416853       -0.57353492171141
H           -3.79200239568152        3.66344633846202       -0.68636167920004
H            4.92645347599828       -2.61948784335529       -0.42351077038381

          :  Hamiltonian                  GFN2-xTB          :
         :: total energy             -53.420808378175 Eh    ::
         :: gradient norm              0.000585518238 Eh/a0 ::
         :: HOMO-LUMO gap              2.141455040788 eV    ::
         :: SCC energy               -54.344820872539 Eh    ::
         :: -> dispersion             -0.038559965644 Eh    ::
         :: repulsion energy           0.923545089320 Eh    ::

    * Orbital Energies and Occupations

         #    Occupation            Energy/Eh            Energy/eV
      -------------------------------------------------------------
         1        2.0000           -0.6885908             -18.7375
       ...           ...                  ...                  ...
        37        2.0000           -0.4626199             -12.5885
        38        2.0000           -0.4503990             -12.2560
        39        2.0000           -0.4382002             -11.9240
        40        2.0000           -0.4338056             -11.8045
        41        2.0000           -0.4286462             -11.6641
        42        2.0000           -0.4226574             -11.5011
        43        2.0000           -0.4208059             -11.4507
        44        2.0000           -0.4150165             -11.2932
        45        2.0000           -0.4087746             -11.1233
        46        2.0000           -0.3998382             -10.8802
        47        2.0000           -0.3871980             -10.5362
        48        2.0000           -0.3758891             -10.2285
        49        2.0000           -0.3542055              -9.6384 (HOMO)
        50                         -0.2755085              -7.4970 (LUMO)
        51                         -0.2366079              -6.4384
        52                         -0.2346673              -6.3856
        53                         -0.2178186              -5.9271
        54                         -0.2066783              -5.6240
        55                         -0.1737600              -4.7282
        56                         -0.1246131              -3.3909
        57                         -0.1068722              -2.9081
        58                         -0.0845700              -2.3013
        59                          0.0251876               0.6854
        60                          0.0351370               0.9561
       ...                                ...                  ...
        94                          0.7436330              20.2353
      -------------------------------------------------------------
                  HL-Gap            0.0786970 Eh            2.1415 eV

     #   Z          covCN         q      C6AA      α(0)
     1   1 H        0.860     0.193     1.143     1.675
     2   7 N        2.701    -0.143    24.103     7.292
     3   6 C        2.888     0.077    26.287     8.406
     4   6 C        2.979     0.011    27.764     8.643
     5   6 C        2.903     0.069    26.464     8.435
     6   6 C        3.087    -0.053    29.216     8.860
     7   6 C        2.976    -0.072    29.802     8.955
     8   7 N        2.771    -0.149    24.225     7.310
     9   6 C        2.856     0.265    22.540     7.782
    10   6 C        2.980     0.012    27.748     8.641
    11   6 C        2.928    -0.029    28.736     8.791
    12   6 C        2.922    -0.027    28.681     8.782
    13   6 C        2.919    -0.027    28.673     8.781
    14   6 C        2.919    -0.028    28.697     8.785
    15   6 C        2.920    -0.028    28.712     8.787
    16   6 C        2.922    -0.055    29.360     8.886
    17   6 C        2.929    -0.054    29.341     8.883
    18   6 C        2.921    -0.030    28.744     8.792
    19   6 C        2.919    -0.028    28.707     8.786
    20   6 C        2.919    -0.040    28.998     8.831
    21   1 H        0.860     0.172     1.263     1.760
    22   8 O        0.857    -0.440    22.489     6.358
    23   1 H        0.926     0.029     2.595     2.519
    24   1 H        0.926     0.037     2.486     2.466
    25   1 H        0.926     0.036     2.499     2.472
    26   1 H        0.926     0.036     2.499     2.472
    27   1 H        0.926     0.035     2.511     2.478
    28   1 H        0.926     0.037     2.492     2.468
    29   1 H        0.926     0.032     2.552     2.498
    30   1 H        0.926     0.029     2.595     2.519
    31   1 H        0.926     0.032     2.562     2.503
    32   1 H        0.926     0.034     2.525     2.485
    33   1 H        0.926     0.039     2.459     2.452
    34   1 H        0.926     0.029     2.603     2.523

Wiberg/Mayer (AO) data.
largest (>0.10) Wiberg bond orders for each atom

     #   Z sym  total        # sym  WBO       # sym  WBO       # sym  WBO
 ---------------------------------------------------------------------------
     1   1 H    0.962 --     2 N    0.909
     2   7 N    3.416 --     3 C    1.128     5 C    1.109     1 H    0.909
     3   6 C    3.969 --     6 C    1.564     2 N    1.128     4 C    0.996
     4   6 C    3.987 --    12 C    1.404    11 C    1.398     3 C    0.996
                            15 C    0.111
     5   6 C    3.967 --    16 C    1.365    17 C    1.345     2 N    1.109
     6   6 C    3.974 --     3 C    1.564     7 C    1.145     9 C    1.027
     7   6 C    3.977 --    10 C    1.701     6 C    1.145    32 H    0.971
     8   7 N    3.506 --     9 C    1.157    10 C    1.133    21 H    0.942
                            22 O    0.148
     9   6 C    3.947 --    22 O    1.652     8 N    1.157     6 C    1.027
    10   6 C    3.947 --     7 C    1.701     8 N    1.133    33 H    0.969
    11   6 C    3.991 --    13 C    1.442     4 C    1.398    23 H    0.971
                            14 C    0.111
    12   6 C    3.989 --    14 C    1.442     4 C    1.404    24 H    0.966
                            13 C    0.111
    13   6 C    3.991 --    11 C    1.442    15 C    1.439    25 H    0.970
                            12 C    0.111
    14   6 C    3.991 --    12 C    1.442    15 C    1.439    26 H    0.970
                            11 C    0.111
    15   6 C    3.991 --    14 C    1.439    13 C    1.439    27 H    0.971
                             4 C    0.111
    16   6 C    3.986 --    18 C    1.449     5 C    1.365    28 H    0.960
                            19 C    0.103
    17   6 C    3.985 --    19 C    1.471     5 C    1.345    29 H    0.967
                            18 C    0.106
    18   6 C    3.992 --    16 C    1.449    20 C    1.438    30 H    0.971
                            17 C    0.106
    19   6 C    3.992 --    17 C    1.471    20 C    1.419    31 H    0.971
                            16 C    0.103
    20   6 C    3.976 --    18 C    1.438    19 C    1.419    34 H    0.972
    21   1 H    0.970 --     8 N    0.942
    22   8 O    2.003 --     9 C    1.652     8 N    0.148
    23   1 H    0.999 --    11 C    0.971
    24   1 H    0.998 --    12 C    0.966
    25   1 H    0.998 --    13 C    0.970
    26   1 H    0.998 --    14 C    0.970
    27   1 H    0.998 --    15 C    0.971
    28   1 H    0.999 --    16 C    0.960
    29   1 H    0.999 --    17 C    0.967
    30   1 H    0.999 --    18 C    0.971
    31   1 H    0.998 --    19 C    0.971
    32   1 H    0.999 --     7 C    0.971
    33   1 H    0.998 --    10 C    0.969
    34   1 H    0.999 --    20 C    0.972
 ---------------------------------------------------------------------------

molecular dipole:
                 x           y           z       tot (Debye)
 q only:       -0.955      -0.769       0.100
   full:       -1.229      -0.646       0.225       3.574

           -------------------------------------------------
          | TOTAL ENERGY              -53.420808378175 Eh   |
          | GRADIENT NORM               0.000585518238 Eh/α |
          | HOMO-LUMO GAP               2.141455040788 eV   |
           -------------------------------------------------

 * finished run on 2023/11/18 at 09:07:31.821
