                               Psi4 1.6 release

  ==> Input File <==

--------------------------------------------------------------------------
molecule {
0 1
 H   -0.106703    0.077072   -1.267757
 N    0.144160   -0.183011   -0.306546
 C    1.276106   -0.982459   -0.041211
 C    2.542028   -0.409490   -0.005092
 C   -0.674973    0.316095    0.622298
 C    1.122890   -2.337409    0.227768
 C   -1.759124    1.068922    0.271585
 N   -3.196429    2.146861   -1.083489
 C   -2.750197    1.736977    1.071023
 C   -2.078540    1.361775   -1.120073
 C   -3.591485    2.366113    0.227736
 C    2.231985   -3.116058    0.506403
 C    3.647015   -1.194352    0.271579
 C    3.494235   -2.547027    0.526718
 H    0.133902   -2.770832    0.211332
 H    2.650910    0.646280   -0.203930
 H   -3.660791    2.512962   -1.897390
 O   -1.481232    1.002258   -2.136985
 H    2.109812   -4.169640    0.709109
 H    4.629636   -0.747196    0.294909
 H   -2.798568    1.722658    2.141671
 H   -4.455720    2.966286    0.437716
 H    4.358245   -3.156676    0.744248
 H   -0.421410    0.128874    1.659660
}
memory 20GB
set_num_threads(5)
psi4_io.set_default_path("/scratch/liuchw/Psi4-1_16_Index_0-farH_in17")
set freeze_core True
E, wfn = energy('wb97x-d/6-311+G*',return_wfn=True)
oeprop(wfn,"WIBERG_LOWDIN_INDICES")
clean()
--------------------------------------------------------------------------

    Molecular point group: c1

    Geometry (in Angstrom), charge = 0, multiplicity = 1:

       Center              X                  Y                   Z               Mass
    ------------   -----------------  -----------------  -----------------  -----------------
         H            0.013974828187     0.099234772492    -1.159796916675     1.007825032230
         N            0.264837828187    -0.160848227508    -0.198585916675    14.003074004430
         C            1.396783828187    -0.960296227508     0.066749083325    12.000000000000
         C            2.662705828187    -0.387327227508     0.102868083325    12.000000000000
         C           -0.554295171813     0.338257772492     0.730258083325    12.000000000000
         C            1.243567828187    -2.315246227508     0.335728083325    12.000000000000
         C           -1.638446171813     1.091084772492     0.379545083325    12.000000000000
         N           -3.075751171813     2.169023772492    -0.975528916675    14.003074004430
         C           -2.629519171813     1.759139772492     1.178983083325    12.000000000000
         C           -1.957862171813     1.383937772492    -1.012112916675    12.000000000000
         C           -3.470807171813     2.388275772492     0.335696083325    12.000000000000
         C            2.352662828187    -3.093895227508     0.614363083325    12.000000000000
         C            3.767692828187    -1.172189227508     0.379539083325    12.000000000000
         C            3.614912828187    -2.524864227508     0.634678083325    12.000000000000
         H            0.254579828187    -2.748669227508     0.319292083325     1.007825032230
         H            2.771587828187     0.668442772492    -0.095969916675     1.007825032230
         H           -3.540113171813     2.535124772492    -1.789429916675     1.007825032230
         O           -1.360554171813     1.024420772492    -2.029024916675    15.994914619570
         H            2.230489828187    -4.147477227508     0.817069083325     1.007825032230
         H            4.750313828187    -0.725033227508     0.402869083325     1.007825032230
         H           -2.677890171813     1.744820772492     2.249631083325     1.007825032230
         H           -4.335042171813     2.988448772492     0.545676083325     1.007825032230
         H            4.478922828187    -3.134513227508     0.852208083325     1.007825032230
         H           -0.300732171813     0.151036772492     1.767620083325     1.007825032230

  Charge       = 0
  Multiplicity = 1
  Basis Set: 6-311+G*
    Blend: 6-311+G*
  Basis Set: (6-311+G* AUX)
    Blend: HEAVY-AUG-CC-PVTZ-JKFIT

    Orbital Energies [Eh]
    ---------------------

    Doubly Occupied:

       1A    -19.203108     2A    -14.466109     3A    -14.460889
       4A    -10.371164     5A    -10.350700     6A    -10.339610
       7A    -10.309844     8A    -10.301238     9A    -10.301140
      10A    -10.300668    11A    -10.300515    12A    -10.299725
      13A    -10.273896    14A    -10.273156    15A     -1.135654
      16A     -1.072712    17A     -1.055477    18A     -0.974828
      19A     -0.903044    20A     -0.866906    21A     -0.861244
      22A     -0.814908    23A     -0.765503    24A     -0.722397
      25A     -0.716118    26A     -0.683814    27A     -0.680856
      28A     -0.642231    29A     -0.602395    30A     -0.586244
      31A     -0.578989    32A     -0.568529    33A     -0.542488
      34A     -0.527601    35A     -0.525361    36A     -0.515216
      37A     -0.509770    38A     -0.495963    39A     -0.480003
      40A     -0.474592    41A     -0.459804    42A     -0.455220
      43A     -0.432427    44A     -0.410043    45A     -0.351699
      46A     -0.347747    47A     -0.334101    48A     -0.328516
      49A     -0.257956

  @DF-RKS Final Energy:  -609.84428776367577

   => Energetics <=

    Nuclear Repulsion Energy =            795.4476469823035814
    One-Electron Energy =               -2403.8006440318567911
    Two-Electron Energy =                1057.8540294776842074
    DFT Exchange-Correlation Energy =     -59.3327136267488129
    Empirical Dispersion Energy =          -0.0126065650580475
    VV10 Nonlocal Energy =                  0.0000000000000000
    Total Energy =                       -609.8442877636759931
 Dipole X            :         -3.1060917            3.4197262            0.3136345
 Dipole Y            :          2.1973538           -2.4088798           -0.2115260
 Dipole Z            :         -2.7020454            3.6583873            0.9563419
 Magnitude           :                                                    1.0284453
*** Psi4 exiting successfully. Buy a developer a beer!
