                               Psi4 1.6 release

  ==> Input File <==

--------------------------------------------------------------------------
molecule {
0 1
 H    0.515874    1.139481   -0.143968
 N    0.340027    0.143078    0.029453
 C    1.402822   -0.765678    0.173634
 C    2.197573   -1.082599   -0.923255
 C   -0.955577   -0.171219    0.118088
 C    1.607340   -1.419366    1.384183
 C   -1.921331    0.779685   -0.047858
 N   -2.795942    2.822492   -0.407409
 C   -3.354715    0.700930    0.035539
 C   -1.596110    2.173295   -0.329816
 C   -3.840567    1.937710   -0.185917
 C    2.626561   -2.346632    1.505970
 C    3.217657   -2.006666   -0.792654
 C    3.434745   -2.639506    0.420458
 H    0.971130   -1.186470    2.225503
 H    2.019410   -0.586252   -1.865402
 H   -2.898476    3.806457   -0.590206
 O   -0.485555    2.690279   -0.465524
 H    2.789006   -2.842747    2.451294
 H    3.837708   -2.243653   -1.644363
 H   -3.918581   -0.188547    0.234700
 H   -4.855363    2.285602   -0.204892
 H    4.229909   -3.363034    0.518004
 H   -1.201790   -1.197659    0.365723
}
memory 20GB
set_num_threads(5)
psi4_io.set_default_path("/scratch/liuchw/Psi4-1_16_Index_0-farH_in17")
set freeze_core True
E, wfn = energy('wb97x-d/6-311+G*',return_wfn=True)
oeprop(wfn,"WIBERG_LOWDIN_INDICES")
clean()
--------------------------------------------------------------------------

    Molecular point group: c1

    Geometry (in Angstrom), charge = 0, multiplicity = 1:

       Center              X                  Y                   Z               Mass
    ------------   -----------------  -----------------  -----------------  -----------------
         H            0.552608428100     1.020895779752    -0.170402051259     1.007825032230
         N            0.376761428100     0.024492779752     0.003018948741    14.003074004430
         C            1.439556428100    -0.884263220248     0.147199948741    12.000000000000
         C            2.234307428100    -1.201184220248    -0.949689051259    12.000000000000
         C           -0.918842571900    -0.289804220248     0.091653948741    12.000000000000
         C            1.644074428100    -1.537951220248     1.357748948741    12.000000000000
         C           -1.884596571900     0.661099779752    -0.074292051259    12.000000000000
         N           -2.759207571900     2.703906779752    -0.433843051259    14.003074004430
         C           -3.317980571900     0.582344779752     0.009104948741    12.000000000000
         C           -1.559375571900     2.054709779752    -0.356250051259    12.000000000000
         C           -3.803832571900     1.819124779752    -0.212351051259    12.000000000000
         C            2.663295428100    -2.465217220248     1.479535948741    12.000000000000
         C            3.254391428100    -2.125251220248    -0.819088051259    12.000000000000
         C            3.471479428100    -2.758091220248     0.394023948741    12.000000000000
         H            1.007864428100    -1.305055220248     2.199068948741     1.007825032230
         H            2.056144428100    -0.704837220248    -1.891836051259     1.007825032230
         H           -2.861741571900     3.687871779752    -0.616640051259     1.007825032230
         O           -0.448820571900     2.571693779752    -0.491958051259    15.994914619570
         H            2.825740428100    -2.961332220248     2.424859948741     1.007825032230
         H            3.874442428100    -2.362238220248    -1.670797051259     1.007825032230
         H           -3.881846571900    -0.307132220248     0.208265948741     1.007825032230
         H           -4.818628571900     2.167016779752    -0.231326051259     1.007825032230
         H            4.266643428100    -3.481619220248     0.491569948741     1.007825032230
         H           -1.165055571900    -1.316244220248     0.339288948741     1.007825032230

  Charge       = 0
  Multiplicity = 1
  Basis Set: 6-311+G*
    Blend: 6-311+G*
  Basis Set: (6-311+G* AUX)
    Blend: HEAVY-AUG-CC-PVTZ-JKFIT

    Orbital Energies [Eh]
    ---------------------

    Doubly Occupied:

       1A    -19.204329     2A    -14.467949     3A    -14.461847
       4A    -10.372442     5A    -10.351468     6A    -10.340232
       7A    -10.310949     8A    -10.300892     9A    -10.300281
      10A    -10.300159    11A    -10.299278    12A    -10.298186
      13A    -10.275382    14A    -10.274073    15A     -1.136962
      16A     -1.074773    17A     -1.056616    18A     -0.974102
      19A     -0.904024    20A     -0.866477    21A     -0.861205
      22A     -0.815707    23A     -0.767001    24A     -0.724381
      25A     -0.715042    26A     -0.683453    27A     -0.681208
      28A     -0.642663    29A     -0.602704    30A     -0.586782
      31A     -0.581103    32A     -0.565670    33A     -0.542503
      34A     -0.528421    35A     -0.525119    36A     -0.516069
      37A     -0.510814    38A     -0.496808    39A     -0.480930
      40A     -0.477699    41A     -0.458199    42A     -0.455306
      43A     -0.433782    44A     -0.411182    45A     -0.355070
      46A     -0.347188    47A     -0.335647    48A     -0.324838
      49A     -0.258249

  @DF-RKS Final Energy:  -609.84528156378963

   => Energetics <=

    Nuclear Repulsion Energy =            795.8623933499050054
    One-Electron Energy =               -2404.5852743878335787
    Two-Electron Energy =                1058.2239329791098044
    DFT Exchange-Correlation Energy =     -59.3336580732752026
    Empirical Dispersion Energy =          -0.0126754316955353
    VV10 Nonlocal Energy =                  0.0000000000000000
    Total Energy =                       -609.8452815637895128
 Dipole X            :         -1.9562250            1.7448672           -0.2113578
 Dipole Y            :          4.2632985           -5.2104050           -0.9471065
 Dipole Z            :         -0.8049750            1.0132787            0.2083036
 Magnitude           :                                                    0.9925086
*** Psi4 exiting successfully. Buy a developer a beer!
