   * xtb version 6.5.0 (97a52f5) compiled by 'conda@d2599ee0d4f4' on 2022-05-15
          program call               : /home/liuchw/anaconda3/envs/xtbenv/bin/xtb --gfn 2 --chrg 0 --uhf 0 1_16_Index_0-opt-2-3-291_preQMOPTprefit_xyzformat.xyz --opt --input xtb-opt-2-3-291_constr.txt

   ID    Z sym.   atoms
    1    1 H      1, 15-17, 19-24
    2    7 N      2, 8
    3    6 C      3-7, 9-14
    4    8 O      18
constraining angle 1 2 3 4 to  290.9841653°, actual value:  -69.0158347°
constraining angle 5 2 3 4 to  111.9992997°, actual value:  111.9992997°
constraining angle 1 2 5 24 to  183.9623581°, actual value: -176.0376419°
constraining angle 3 2 5 24 to    2.9966944°, actual value:    2.9966944°
constraining angle 2 5 7 9 to  182.0006793°, actual value: -177.9993207°

          :  Hamiltonian                  GFN2-xTB          :
 * total energy  :   -38.5450171 Eh     change       -0.9145111E-09 Eh
 * total energy  :   -38.5521215 Eh     change       -0.7104348E-02 Eh
 * total energy  :   -38.5530275 Eh     change       -0.9059832E-03 Eh
 * total energy  :   -38.5528163 Eh     change        0.2111577E-03 Eh
 * total energy  :   -38.5533333 Eh     change       -0.5170219E-03 Eh
 * total energy  :   -38.5533618 Eh     change       -0.2848960E-04 Eh
 * total energy  :   -38.5533981 Eh     change       -0.3629698E-04 Eh
 * total energy  :   -38.5534094 Eh     change       -0.1129827E-04 Eh
 * total energy  :   -38.5534150 Eh     change       -0.5588304E-05 Eh
 * total energy  :   -38.5534184 Eh     change       -0.3397331E-05 Eh
 * total energy  :   -38.5534219 Eh     change       -0.3515489E-05 Eh
   *** GEOMETRY OPTIMIZATION CONVERGED AFTER 11 ITERATIONS ***

 final structure:
================
24
 xtb: 6.5.0 (97a52f5)
H            0.51587391060398        1.13948122590820       -0.14396762875371
N            0.34002704785843        0.14307848117475        0.02945313570983
C            1.40282189322228       -0.76567764870442        0.17363358370002
C            2.19757335454110       -1.08259917235060       -0.92325501763585
C           -0.95557691899167       -0.17121944881173        0.11808777322672
C            1.60734005346074       -1.41936603705522        1.38418311659970
C           -1.92133095142505        0.77968497063781       -0.04785828824270
N           -2.79594180416159        2.82249227763423       -0.40740932237375
C           -3.35471472960906        0.70092985586468        0.03553877780551
C           -1.59610969932893        2.17329485028371       -0.32981621156162
C           -3.84056741359744        1.93770951881875       -0.18591742046778
C            2.62656131977976       -2.34663215772714        1.50597005047718
C            3.21765732590205       -2.00666577963399       -0.79265356081779
C            3.43474546677883       -2.63950609703582        0.42045755061803
H            0.97113038723096       -1.18647031261791        2.22550313461747
H            2.01940958577977       -0.58625241132925       -1.86540204993477
H           -2.89847561010211        3.80645743051998       -0.59020600681855
O           -0.48555464027849        2.69027906953584       -0.46552428776633
H            2.78900579055259       -2.84274714538464        2.45129361862007
H            3.83770847401572       -2.24365301572153       -1.64436255363105
H           -3.91858132527701       -0.18854681869968        0.23470045115768
H           -4.85536333356313        2.28560217000165       -0.20489243997321
H            4.22990910202822       -3.36303390158537        0.51800360274195
H           -1.20179027541987       -1.19765888372241        0.36572301270283

          :  Hamiltonian                  GFN2-xTB          :
         :: total energy             -38.553421904189 Eh    ::
         :: gradient norm              0.000940508439 Eh/a0 ::
         :: HOMO-LUMO gap              2.410829128834 eV    ::
         :: SCC energy               -39.183416493345 Eh    ::
         :: -> dispersion             -0.022168244019 Eh    ::
         :: repulsion energy           0.630124813928 Eh    ::

    * Orbital Energies and Occupations

         #    Occupation            Energy/Eh            Energy/eV
      -------------------------------------------------------------
         1        2.0000           -0.6784266             -18.4609
       ...           ...                  ...                  ...
        23        2.0000           -0.4839599             -13.1692
        24        2.0000           -0.4763177             -12.9613
        25        2.0000           -0.4739666             -12.8973
        26        2.0000           -0.4656256             -12.6703
        27        2.0000           -0.4584748             -12.4757
        28        2.0000           -0.4508842             -12.2692
        29        2.0000           -0.4422388             -12.0339
        30        2.0000           -0.4349480             -11.8355
        31        2.0000           -0.4171286             -11.3506
        32        2.0000           -0.4163474             -11.3294
        33        2.0000           -0.3921508             -10.6710
        34        2.0000           -0.3767714             -10.2525
        35        2.0000           -0.3453193              -9.3966 (HOMO)
        36                         -0.2567230              -6.9858 (LUMO)
        37                         -0.2351800              -6.3996
        38                         -0.2309754              -6.2852
        39                         -0.1652736              -4.4973
        40                         -0.1081041              -2.9417
        41                         -0.1029975              -2.8027
        42                          0.0150971               0.4108
        43                          0.0377744               1.0279
        44                          0.1139972               3.1020
        45                          0.1147039               3.1213
        46                          0.1351684               3.6781
       ...                                ...                  ...
        66                          0.7433488              20.2276
      -------------------------------------------------------------
                  HL-Gap            0.0885963 Eh            2.4108 eV

     #   Z          covCN         q      C6AA      α(0)
     1   1 H        0.859     0.228     0.975     1.547
     2   7 N        2.700    -0.125    23.709     7.232
     3   6 C        2.913     0.069    26.467     8.436
     4   6 C        2.923    -0.042    29.047     8.838
     5   6 C        2.834     0.046    26.958     8.508
     6   6 C        2.923    -0.042    29.038     8.837
     7   6 C        3.090    -0.073    29.716     8.935
     8   7 N        2.776    -0.147    24.177     7.303
     9   6 C        2.982    -0.071    29.764     8.949
    10   6 C        2.874     0.255    22.724     7.815
    11   6 C        2.992     0.000    28.012     8.682
    12   6 C        2.920    -0.027    28.683     8.783
    13   6 C        2.920    -0.027    28.665     8.780
    14   6 C        2.920    -0.032    28.786     8.798
    15   1 H        0.926     0.041     2.433     2.439
    16   1 H        0.926     0.045     2.379     2.412
    17   1 H        0.860     0.168     1.287     1.777
    18   8 O        0.857    -0.492    23.613     6.515
    19   1 H        0.926     0.039     2.462     2.454
    20   1 H        0.926     0.040     2.449     2.447
    21   1 H        0.926     0.030     2.580     2.512
    22   1 H        0.926     0.033     2.544     2.494
    23   1 H        0.926     0.038     2.476     2.460
    24   1 H        0.925     0.045     2.378     2.412

Wiberg/Mayer (AO) data.
largest (>0.10) Wiberg bond orders for each atom

     #   Z sym  total        # sym  WBO       # sym  WBO       # sym  WBO
 ---------------------------------------------------------------------------
     1   1 H    0.948 --     2 N    0.867
     2   7 N    3.526 --     5 C    1.322     3 C    1.030     1 H    0.867
                             7 C    0.100
     3   6 C    3.967 --     6 C    1.392     4 C    1.388     2 N    1.030
                            14 C    0.105
     4   6 C    3.987 --    13 C    1.450     3 C    1.388    16 H    0.969
                            12 C    0.111
     5   6 C    3.971 --     7 C    1.483     2 N    1.322    24 H    0.959
     6   6 C    3.988 --    12 C    1.445     3 C    1.392    15 H    0.969
                            13 C    0.109
     7   6 C    3.965 --     5 C    1.483     9 C    1.156    10 C    1.078
                             2 N    0.100
     8   7 N    3.512 --    10 C    1.181    11 C    1.125    17 H    0.943
                            18 O    0.142
     9   6 C    3.978 --    11 C    1.697     7 C    1.156    21 H    0.972
    10   6 C    3.951 --    18 O    1.559     8 N    1.181     7 C    1.078
    11   6 C    3.945 --     9 C    1.697     8 N    1.125    22 H    0.970
    12   6 C    3.991 --     6 C    1.445    14 C    1.439    19 H    0.970
                             4 C    0.111
    13   6 C    3.991 --     4 C    1.450    14 C    1.435    20 H    0.970
                             6 C    0.109
    14   6 C    3.986 --    12 C    1.439    13 C    1.435    23 H    0.971
                             3 C    0.105
    15   1 H    0.998 --     6 C    0.969
    16   1 H    0.998 --     4 C    0.969
    17   1 H    0.971 --     8 N    0.943
    18   8 O    1.970 --    10 C    1.559     8 N    0.142
    19   1 H    0.998 --    12 C    0.970
    20   1 H    0.997 --    13 C    0.970
    21   1 H    0.999 --     9 C    0.972
    22   1 H    0.998 --    11 C    0.970
    23   1 H    0.999 --    14 C    0.971
    24   1 H    0.997 --     5 C    0.959
 ---------------------------------------------------------------------------

molecular dipole:
                 x           y           z       tot (Debye)
 q only:        0.109      -1.049       0.206
   full:       -0.153      -0.875       0.201       2.314

           -------------------------------------------------
          | TOTAL ENERGY              -38.553421904189 Eh   |
          | GRADIENT NORM               0.000940508439 Eh/α |
          | HOMO-LUMO GAP               2.410829128834 eV   |
           -------------------------------------------------

 * finished run on 2023/11/18 at 08:35:46.269
