   * xtb version 6.5.0 (97a52f5) compiled by 'conda@d2599ee0d4f4' on 2022-05-15
          program call               : /home/liuchw/anaconda3/envs/xtbenv/bin/xtb --gfn 2 --chrg 0 --uhf 0 1_16_Index_0-opt-2-3-171_preQMOPTprefit_xyzformat.xyz --opt --input xtb-opt-2-3-171_constr.txt

   ID    Z sym.   atoms
    1    1 H      1, 15-17, 19-24
    2    7 N      2, 8
    3    6 C      3-7, 9-14
    4    8 O      18
constraining angle 1 2 3 4 to  170.9797823°, actual value:  170.9797823°
constraining angle 5 2 3 4 to  351.9929964°, actual value:   -8.0070036°
constraining angle 1 2 5 24 to  183.9598206°, actual value: -176.0401794°
constraining angle 3 2 5 24 to    2.9946305°, actual value:    2.9946305°
constraining angle 2 5 7 9 to  181.9964817°, actual value: -178.0035183°

          :  Hamiltonian                  GFN2-xTB          :
 * total energy  :   -38.5519718 Eh     change       -0.5191936E-09 Eh
 * total energy  :   -38.5603516 Eh     change       -0.8379786E-02 Eh
 * total energy  :   -38.5618044 Eh     change       -0.1452841E-02 Eh
 * total energy  :   -38.5616014 Eh     change        0.2030806E-03 Eh
 * total energy  :   -38.5620098 Eh     change       -0.4084115E-03 Eh
 * total energy  :   -38.5620357 Eh     change       -0.2590227E-04 Eh
 * total energy  :   -38.5620532 Eh     change       -0.1751548E-04 Eh
 * total energy  :   -38.5620696 Eh     change       -0.1643698E-04 Eh
 * total energy  :   -38.5620748 Eh     change       -0.5182198E-05 Eh
 * total energy  :   -38.5620806 Eh     change       -0.5792563E-05 Eh
 * total energy  :   -38.5620819 Eh     change       -0.1321156E-05 Eh
   *** GEOMETRY OPTIMIZATION CONVERGED AFTER 11 ITERATIONS ***

 final structure:
================
24
 xtb: 6.5.0 (97a52f5)
H           -0.61610646848676       -0.68002488737497       -0.79851584319495
N            0.03254650538938       -0.33762256415725       -0.08032081645459
C            1.19842786189477       -1.05090355208306        0.12216531918419
C            2.24288971324658       -0.60033721702404        0.93029464761458
C           -0.39127161553919        0.78141765895477        0.52422360145048
C            1.33523159428000       -2.27405613366253       -0.53969977749385
C           -1.59263510722120        1.33856533528711        0.19382989179980
N           -3.55535722464193        1.60904535028083       -0.87949380044285
C           -2.23127777786378        2.53597402642173        0.66921307130418
C           -2.48137705991274        0.76617804197916       -0.81668716471343
C           -3.39844205900010        2.66190666220303        0.00846566970033
C            2.47792432828977       -3.03118853432731       -0.38296433065024
C            3.38285420865447       -1.36718860292610        1.08029697989533
C            3.50770735959806       -2.58310990748863        0.42985286763460
H            0.53140014077163       -2.61906689946677       -1.17367855884895
H            2.17155770664571        0.34673103197743        1.44201497731731
H           -4.34319643359269        1.48024386855654       -1.49178002818089
O           -2.32241905610973       -0.24995908612249       -1.49207475310072
H            2.56810453017869       -3.97580653649317       -0.89834483050917
H            4.18356985072308       -1.00741017716340        1.70957659798287
H           -1.83835920453122        3.19477713742445        1.41758400010195
H           -4.15283216886938        3.42113087611232        0.08415909745158
H            4.40155148862986       -3.17528470671008        0.55194421056357
H            0.25525987746662        1.25496682580233        1.25122399158883

          :  Hamiltonian                  GFN2-xTB          :
         :: total energy             -38.562081926174 Eh    ::
         :: gradient norm              0.000449364026 Eh/a0 ::
         :: HOMO-LUMO gap              2.209184445366 eV    ::
         :: SCC energy               -39.193330304829 Eh    ::
         :: -> dispersion             -0.022215391201 Eh    ::
         :: repulsion energy           0.631426599123 Eh    ::

    * Orbital Energies and Occupations

         #    Occupation            Energy/Eh            Energy/eV
      -------------------------------------------------------------
         1        2.0000           -0.6853846             -18.6503
       ...           ...                  ...                  ...
        23        2.0000           -0.4832267             -13.1493
        24        2.0000           -0.4793723             -13.0444
        25        2.0000           -0.4729492             -12.8696
        26        2.0000           -0.4712102             -12.8223
        27        2.0000           -0.4615331             -12.5590
        28        2.0000           -0.4575528             -12.4506
        29        2.0000           -0.4388028             -11.9404
        30        2.0000           -0.4284685             -11.6592
        31        2.0000           -0.4243568             -11.5473
        32        2.0000           -0.4105278             -11.1710
        33        2.0000           -0.3884363             -10.5699
        34        2.0000           -0.3834048             -10.4330
        35        2.0000           -0.3503458              -9.5334 (HOMO)
        36                         -0.2691597              -7.3242 (LUMO)
        37                         -0.2277794              -6.1982
        38                         -0.2076913              -5.6516
        39                         -0.1711210              -4.6564
        40                         -0.1141601              -3.1065
        41                         -0.0879959              -2.3945
        42                          0.0240404               0.6542
        43                          0.0339296               0.9233
        44                          0.0950149               2.5855
        45                          0.1111296               3.0240
        46                          0.1270756               3.4579
       ...                                ...                  ...
        66                          0.7382212              20.0880
      -------------------------------------------------------------
                  HL-Gap            0.0811860 Eh            2.2092 eV

     #   Z          covCN         q      C6AA      α(0)
     1   1 H        0.859     0.228     0.976     1.548
     2   7 N        2.703    -0.104    23.285     7.167
     3   6 C        2.907     0.067    26.500     8.441
     4   6 C        2.920    -0.049    29.212     8.863
     5   6 C        2.830     0.039    27.111     8.532
     6   6 C        2.927    -0.052    29.280     8.874
     7   6 C        3.088    -0.067    29.549     8.910
     8   7 N        2.775    -0.146    24.147     7.298
     9   6 C        2.981    -0.071    29.773     8.951
    10   6 C        2.872     0.257    22.691     7.809
    11   6 C        2.991     0.003    27.939     8.671
    12   6 C        2.919    -0.026    28.660     8.779
    13   6 C        2.920    -0.028    28.706     8.786
    14   6 C        2.919    -0.037    28.932     8.821
    15   1 H        0.926     0.042     2.428     2.437
    16   1 H        0.926     0.034     2.534     2.489
    17   1 H        0.860     0.170     1.273     1.768
    18   8 O        0.857    -0.485    23.449     6.492
    19   1 H        0.926     0.037     2.494     2.470
    20   1 H        0.926     0.034     2.524     2.484
    21   1 H        0.926     0.034     2.536     2.490
    22   1 H        0.926     0.036     2.499     2.472
    23   1 H        0.926     0.033     2.537     2.491
    24   1 H        0.925     0.051     2.304     2.374

Wiberg/Mayer (AO) data.
largest (>0.10) Wiberg bond orders for each atom

     #   Z sym  total        # sym  WBO       # sym  WBO       # sym  WBO
 ---------------------------------------------------------------------------
     1   1 H    0.948 --     2 N    0.876
     2   7 N    3.575 --     5 C    1.294     3 C    1.112     1 H    0.876
     3   6 C    3.964 --     4 C    1.355     6 C    1.346     2 N    1.112
     4   6 C    3.983 --    13 C    1.456     3 C    1.355    16 H    0.965
                            12 C    0.103
     5   6 C    3.972 --     7 C    1.498     2 N    1.294    24 H    0.954
     6   6 C    3.983 --    12 C    1.467     3 C    1.346    15 H    0.967
                            13 C    0.105
     7   6 C    3.961 --     5 C    1.498     9 C    1.157    10 C    1.067
     8   7 N    3.514 --    10 C    1.181    11 C    1.126    17 H    0.942
                            18 O    0.143
     9   6 C    3.977 --    11 C    1.696     7 C    1.157    21 H    0.972
    10   6 C    3.948 --    18 O    1.572     8 N    1.181     7 C    1.067
    11   6 C    3.933 --     9 C    1.696     8 N    1.126    22 H    0.970
    12   6 C    3.992 --     6 C    1.467    14 C    1.422    19 H    0.971
                             4 C    0.103
    13   6 C    3.992 --     4 C    1.456    14 C    1.432    20 H    0.971
                             6 C    0.105
    14   6 C    3.965 --    13 C    1.432    12 C    1.422    23 H    0.972
    15   1 H    0.998 --     6 C    0.967
    16   1 H    0.999 --     4 C    0.965
    17   1 H    0.971 --     8 N    0.942
    18   8 O    1.973 --    10 C    1.572     8 N    0.143
    19   1 H    0.998 --    12 C    0.971
    20   1 H    0.998 --    13 C    0.971
    21   1 H    0.999 --     9 C    0.972
    22   1 H    0.998 --    11 C    0.970
    23   1 H    0.999 --    14 C    0.972
    24   1 H    0.997 --     5 C    0.954
 ---------------------------------------------------------------------------

molecular dipole:
                 x           y           z       tot (Debye)
 q only:        0.481       0.355       0.544
   full:        0.226       0.551       0.511       1.993

           -------------------------------------------------
          | TOTAL ENERGY              -38.562081926174 Eh   |
          | GRADIENT NORM               0.000449364026 Eh/α |
          | HOMO-LUMO GAP               2.209184445366 eV   |
           -------------------------------------------------

 * finished run on 2023/11/18 at 08:34:31.585
