   * xtb version 6.5.0 (97a52f5) compiled by 'conda@d2599ee0d4f4' on 2022-05-15
          program call               : /home/liuchw/anaconda3/envs/xtbenv/bin/xtb --gfn 2 --chrg 0 --uhf 0 1_16_Index_0-opt-2-3-351_preQMOPTprefit_xyzformat.xyz --opt --input xtb-opt-2-3-351_constr.txt

   ID    Z sym.   atoms
    1    1 H      1, 15-17, 19-24
    2    7 N      2, 8
    3    6 C      3-7, 9-14
    4    8 O      18
constraining angle 1 2 3 4 to  350.9817650°, actual value:   -9.0182350°
constraining angle 5 2 3 4 to  171.9921898°, actual value:  171.9921898°
constraining angle 1 2 5 24 to  183.9594857°, actual value: -176.0405143°
constraining angle 3 2 5 24 to    2.9968092°, actual value:    2.9968092°
constraining angle 2 5 7 9 to  181.9950669°, actual value: -178.0049331°

          :  Hamiltonian                  GFN2-xTB          :
 * total energy  :   -38.5519973 Eh     change       -0.1300037E-08 Eh
 * total energy  :   -38.5603439 Eh     change       -0.8346588E-02 Eh
 * total energy  :   -38.5617582 Eh     change       -0.1414222E-02 Eh
 * total energy  :   -38.5612838 Eh     change        0.4743519E-03 Eh
 * total energy  :   -38.5619999 Eh     change       -0.7161453E-03 Eh
 * total energy  :   -38.5620191 Eh     change       -0.1914856E-04 Eh
 * total energy  :   -38.5620430 Eh     change       -0.2394544E-04 Eh
 * total energy  :   -38.5620548 Eh     change       -0.1171638E-04 Eh
 * total energy  :   -38.5620604 Eh     change       -0.5633472E-05 Eh
 * total energy  :   -38.5620642 Eh     change       -0.3788858E-05 Eh
 * total energy  :   -38.5620675 Eh     change       -0.3279994E-05 Eh
   *** GEOMETRY OPTIMIZATION CONVERGED AFTER 11 ITERATIONS ***

 final structure:
================
24
 xtb: 6.5.0 (97a52f5)
H            0.37336625558772        0.75734146953745       -0.69569900552137
N            0.23771451793558       -0.04103893838816       -0.06497673734369
C            1.30792257637733       -0.89281381315479        0.13170999888170
C            2.43209565600278       -0.72443828506135       -0.68111595599740
C           -0.98941607035787       -0.08761817575852        0.47294954241934
C            1.31134431650346       -1.91115747823741        1.08558057349960
C           -1.93013581314850        0.84516643478800        0.14523310562433
N           -2.83098240694732        2.66044940889864       -0.83982156087854
C           -3.27833377158181        1.01858047226596        0.61442111144234
C           -1.67337359594944        1.93526207787466       -0.79510507782267
C           -3.78238914595601        2.10828759944275        0.00372262221332
C            2.41409239383320       -2.73373890088557        1.21693280973841
C            3.52782431186379       -1.55105642287834       -0.54072316739485
C            3.52457147486929       -2.56186594398112        0.40803821531970
H            0.46041216845512       -2.06088678998135        1.73158568610025
H            2.43101390500038        0.06410211208646       -1.41951093294764
H           -2.96485237297667        3.48271317013302       -1.40386513770798
O           -0.64372727419568        2.18197389787457       -1.42177595382660
H            2.40450418125781       -3.51670105615403        1.96087919627408
H            4.38938056019996       -1.40924116996582       -1.17604106240163
H           -3.77713553413885        0.38369532261344        1.31911791182584
H           -4.75222107640959        2.55874509462729        0.09182486305248
H            4.38103837492589       -3.20935270285991        0.51644222691405
H           -1.20695962115044       -0.85742937283583        1.20147571853707

          :  Hamiltonian                  GFN2-xTB          :
         :: total energy             -38.562067461601 Eh    ::
         :: gradient norm              0.000696747742 Eh/a0 ::
         :: HOMO-LUMO gap              2.210433250127 eV    ::
         :: SCC energy               -39.193412973898 Eh    ::
         :: -> dispersion             -0.022213515512 Eh    ::
         :: repulsion energy           0.631523900259 Eh    ::

    * Orbital Energies and Occupations

         #    Occupation            Energy/Eh            Energy/eV
      -------------------------------------------------------------
         1        2.0000           -0.6853350             -18.6489
       ...           ...                  ...                  ...
        23        2.0000           -0.4832873             -13.1509
        24        2.0000           -0.4792774             -13.0418
        25        2.0000           -0.4729852             -12.8706
        26        2.0000           -0.4712048             -12.8221
        27        2.0000           -0.4615389             -12.5591
        28        2.0000           -0.4575273             -12.4500
        29        2.0000           -0.4388441             -11.9416
        30        2.0000           -0.4284854             -11.6597
        31        2.0000           -0.4243563             -11.5473
        32        2.0000           -0.4105758             -11.1723
        33        2.0000           -0.3884518             -10.5703
        34        2.0000           -0.3833738             -10.4321
        35        2.0000           -0.3503514              -9.5335 (HOMO)
        36                         -0.2691195              -7.3231 (LUMO)
        37                         -0.2278164              -6.1992
        38                         -0.2077622              -5.6535
        39                         -0.1710826              -4.6554
        40                         -0.1141204              -3.1054
        41                         -0.0880310              -2.3954
        42                          0.0238681               0.6495
        43                          0.0339030               0.9225
        44                          0.0948392               2.5807
        45                          0.1112207               3.0265
        46                          0.1270745               3.4579
       ...                                ...                  ...
        66                          0.7384212              20.0935
      -------------------------------------------------------------
                  HL-Gap            0.0812319 Eh            2.2104 eV

     #   Z          covCN         q      C6AA      α(0)
     1   1 H        0.859     0.227     0.977     1.549
     2   7 N        2.703    -0.104    23.282     7.166
     3   6 C        2.907     0.067    26.500     8.441
     4   6 C        2.927    -0.051    29.279     8.874
     5   6 C        2.830     0.039    27.112     8.532
     6   6 C        2.921    -0.049    29.213     8.863
     7   6 C        3.088    -0.067    29.548     8.910
     8   7 N        2.775    -0.146    24.148     7.298
     9   6 C        2.981    -0.071    29.774     8.951
    10   6 C        2.872     0.257    22.690     7.808
    11   6 C        2.991     0.003    27.938     8.670
    12   6 C        2.920    -0.028    28.706     8.786
    13   6 C        2.919    -0.026    28.660     8.779
    14   6 C        2.919    -0.037    28.932     8.821
    15   1 H        0.926     0.034     2.534     2.489
    16   1 H        0.926     0.042     2.428     2.437
    17   1 H        0.860     0.170     1.273     1.768
    18   8 O        0.857    -0.485    23.448     6.492
    19   1 H        0.926     0.034     2.524     2.484
    20   1 H        0.926     0.037     2.494     2.470
    21   1 H        0.926     0.034     2.536     2.490
    22   1 H        0.926     0.036     2.499     2.472
    23   1 H        0.926     0.034     2.537     2.491
    24   1 H        0.925     0.051     2.303     2.373

Wiberg/Mayer (AO) data.
largest (>0.10) Wiberg bond orders for each atom

     #   Z sym  total        # sym  WBO       # sym  WBO       # sym  WBO
 ---------------------------------------------------------------------------
     1   1 H    0.948 --     2 N    0.877
     2   7 N    3.574 --     5 C    1.294     3 C    1.112     1 H    0.877
     3   6 C    3.964 --     6 C    1.355     4 C    1.346     2 N    1.112
     4   6 C    3.983 --    13 C    1.467     3 C    1.346    16 H    0.967
                            12 C    0.105
     5   6 C    3.972 --     7 C    1.499     2 N    1.294    24 H    0.954
     6   6 C    3.983 --    12 C    1.456     3 C    1.355    15 H    0.965
                            13 C    0.103
     7   6 C    3.962 --     5 C    1.499     9 C    1.157    10 C    1.067
     8   7 N    3.514 --    10 C    1.181    11 C    1.126    17 H    0.942
                            18 O    0.143
     9   6 C    3.977 --    11 C    1.696     7 C    1.157    21 H    0.972
    10   6 C    3.948 --    18 O    1.572     8 N    1.181     7 C    1.067
    11   6 C    3.933 --     9 C    1.696     8 N    1.126    22 H    0.970
    12   6 C    3.992 --     6 C    1.456    14 C    1.432    19 H    0.971
                             4 C    0.105
    13   6 C    3.991 --     4 C    1.467    14 C    1.423    20 H    0.971
                             6 C    0.103
    14   6 C    3.965 --    12 C    1.432    13 C    1.423    23 H    0.972
    15   1 H    0.999 --     6 C    0.965
    16   1 H    0.998 --     4 C    0.967
    17   1 H    0.971 --     8 N    0.942
    18   8 O    1.972 --    10 C    1.572     8 N    0.143
    19   1 H    0.998 --    12 C    0.971
    20   1 H    0.998 --    13 C    0.971
    21   1 H    0.999 --     9 C    0.972
    22   1 H    0.998 --    11 C    0.970
    23   1 H    0.999 --    14 C    0.972
    24   1 H    0.997 --     5 C    0.954
 ---------------------------------------------------------------------------

molecular dipole:
                 x           y           z       tot (Debye)
 q only:       -0.164      -0.578       0.545
   full:       -0.427      -0.390       0.532       1.996

           -------------------------------------------------
          | TOTAL ENERGY              -38.562067461601 Eh   |
          | GRADIENT NORM               0.000696747742 Eh/α |
          | HOMO-LUMO GAP               2.210433250127 eV   |
           -------------------------------------------------

 * finished run on 2023/11/18 at 08:35:07.826
