   * xtb version 6.5.0 (97a52f5) compiled by 'conda@d2599ee0d4f4' on 2022-05-15
          program call               : /home/liuchw/anaconda3/envs/xtbenv/bin/xtb --gfn 2 --chrg 0 --uhf 0 1_16_Index_0-opt-2-3-261_preQMOPTprefit_xyzformat.xyz --opt --input xtb-opt-2-3-261_constr.txt

   ID    Z sym.   atoms
    1    1 H      1, 15-17, 19-24
    2    7 N      2, 8
    3    6 C      3-7, 9-14
    4    8 O      18
constraining angle 1 2 3 4 to  260.9920937°, actual value:  -99.0079063°
constraining angle 5 2 3 4 to   82.0117194°, actual value:   82.0117194°
constraining angle 1 2 5 24 to  183.9662299°, actual value: -176.0337701°
constraining angle 3 2 5 24 to    2.9960526°, actual value:    2.9960526°
constraining angle 2 5 7 9 to  181.9926236°, actual value: -178.0073764°

          :  Hamiltonian                  GFN2-xTB          :
 * total energy  :   -38.5435353 Eh     change       -0.5059348E-09 Eh
 * total energy  :   -38.5505964 Eh     change       -0.7061167E-02 Eh
 * total energy  :   -38.5514141 Eh     change       -0.8176876E-03 Eh
 * total energy  :   -38.5513476 Eh     change        0.6651235E-04 Eh
 * total energy  :   -38.5516261 Eh     change       -0.2784490E-03 Eh
 * total energy  :   -38.5516475 Eh     change       -0.2147418E-04 Eh
 * total energy  :   -38.5516621 Eh     change       -0.1451720E-04 Eh
 * total energy  :   -38.5516672 Eh     change       -0.5136750E-05 Eh
 * total energy  :   -38.5516707 Eh     change       -0.3545345E-05 Eh
 * total energy  :   -38.5516720 Eh     change       -0.1219064E-05 Eh
 * total energy  :   -38.5516738 Eh     change       -0.1838225E-05 Eh
 * total energy  :   -38.5516733 Eh     change        0.5117436E-06 Eh
 * total energy  :   -38.5516745 Eh     change       -0.1244345E-05 Eh
 * total energy  :   -38.5516755 Eh     change       -0.9536007E-06 Eh
   *** GEOMETRY OPTIMIZATION CONVERGED AFTER 14 ITERATIONS ***

 final structure:
================
24
 xtb: 6.5.0 (97a52f5)
H            0.48286018577583        1.11751808194191        0.24308300376782
N            0.30674451017250        0.11206550576023        0.13350015610674
C            1.35863793939047       -0.82365992433542        0.22992642250795
C            1.94633978475394       -1.33204675097918       -0.92235518464228
C           -0.97466660846638       -0.19680960013067       -0.08080050862567
C            1.83882114241828       -1.20522779551233        1.47732812852646
C           -1.92741784615588        0.77712416453201       -0.17434885778908
N           -2.79026771855263        2.85527850589349       -0.16616761937629
C           -3.35097483163181        0.69725161697571       -0.36021950166311
C           -1.60108328456485        2.19201617663715       -0.04824924788812
C           -3.82982109418827        1.95639865736904       -0.35268361795719
C            2.88570761350413       -2.10496811033081        1.56795626347103
C            2.99128890429526       -2.23350831149107       -0.82438128040007
C            3.46144635012561       -2.62126045662170        0.41903918823449
H            1.38510070048617       -0.79475384863219        2.36707138627530
H            1.57332823199146       -1.02146162116125       -1.88702265616711
H           -2.89005042002755        3.85530219086923       -0.12032844003174
O           -0.49869173965358        2.71190110271441        0.13712869632150
H            3.25326764717107       -2.40345562615843        2.53844757953386
H            3.44343107679385       -2.62926716272784       -1.72160804834676
H           -3.91195892194301       -0.20749522179797       -0.48495853331988
H           -4.83655572089906        2.31066764499112       -0.46336152742580
H            4.27833587696133       -3.32328409819923        0.49278767480292
H           -1.22806375775613       -1.24934711960533       -0.13850247591525

          :  Hamiltonian                  GFN2-xTB          :
         :: total energy             -38.551675482317 Eh    ::
         :: gradient norm              0.000225184280 Eh/a0 ::
         :: HOMO-LUMO gap              2.486480136038 eV    ::
         :: SCC energy               -39.181453861321 Eh    ::
         :: -> dispersion             -0.022115654031 Eh    ::
         :: repulsion energy           0.629906772202 Eh    ::

    * Orbital Energies and Occupations

         #    Occupation            Energy/Eh            Energy/eV
      -------------------------------------------------------------
         1        2.0000           -0.6768774             -18.4188
       ...           ...                  ...                  ...
        23        2.0000           -0.4844182             -13.1817
        24        2.0000           -0.4752900             -12.9333
        25        2.0000           -0.4734222             -12.8825
        26        2.0000           -0.4644183             -12.6375
        27        2.0000           -0.4578543             -12.4588
        28        2.0000           -0.4494350             -12.2297
        29        2.0000           -0.4424836             -12.0406
        30        2.0000           -0.4358921             -11.8612
        31        2.0000           -0.4184680             -11.3871
        32        2.0000           -0.4157139             -11.3122
        33        2.0000           -0.3923533             -10.6765
        34        2.0000           -0.3752952             -10.2123
        35        2.0000           -0.3439921              -9.3605 (HOMO)
        36                         -0.2526156              -6.8740 (LUMO)
        37                         -0.2367765              -6.4430
        38                         -0.2364611              -6.4344
        39                         -0.1640031              -4.4628
        40                         -0.1078537              -2.9348
        41                         -0.1039149              -2.8277
        42                          0.0119903               0.3263
        43                          0.0387358               1.0541
        44                          0.1132802               3.0825
        45                          0.1160011               3.1566
        46                          0.1362954               3.7088
       ...                                ...                  ...
        66                          0.7443933              20.2560
      -------------------------------------------------------------
                  HL-Gap            0.0913765 Eh            2.4865 eV

     #   Z          covCN         q      C6AA      α(0)
     1   1 H        0.859     0.228     0.973     1.545
     2   7 N        2.699    -0.128    23.789     7.244
     3   6 C        2.912     0.069    26.460     8.435
     4   6 C        2.923    -0.040    28.993     8.830
     5   6 C        2.834     0.047    26.932     8.504
     6   6 C        2.923    -0.041    29.017     8.834
     7   6 C        3.091    -0.075    29.753     8.941
     8   7 N        2.776    -0.147    24.186     7.304
     9   6 C        2.982    -0.071    29.765     8.949
    10   6 C        2.874     0.255    22.732     7.816
    11   6 C        2.992    -0.000    28.026     8.684
    12   6 C        2.920    -0.027    28.667     8.780
    13   6 C        2.920    -0.027    28.673     8.781
    14   6 C        2.920    -0.030    28.758     8.794
    15   1 H        0.926     0.045     2.388     2.416
    16   1 H        0.926     0.044     2.394     2.420
    17   1 H        0.860     0.167     1.291     1.780
    18   8 O        0.857    -0.494    23.645     6.519
    19   1 H        0.926     0.040     2.442     2.444
    20   1 H        0.926     0.040     2.444     2.445
    21   1 H        0.926     0.030     2.590     2.517
    22   1 H        0.926     0.032     2.554     2.499
    23   1 H        0.926     0.039     2.462     2.454
    24   1 H        0.925     0.044     2.395     2.420

Wiberg/Mayer (AO) data.
largest (>0.10) Wiberg bond orders for each atom

     #   Z sym  total        # sym  WBO       # sym  WBO       # sym  WBO
 ---------------------------------------------------------------------------
     1   1 H    0.948 --     2 N    0.865
     2   7 N    3.517 --     5 C    1.329     3 C    1.014     1 H    0.865
                             7 C    0.105
     3   6 C    3.967 --     4 C    1.398     6 C    1.397     2 N    1.014
                            14 C    0.107
     4   6 C    3.989 --    13 C    1.444     3 C    1.398    16 H    0.969
                            12 C    0.111
     5   6 C    3.971 --     7 C    1.480     2 N    1.329    24 H    0.960
     6   6 C    3.989 --    12 C    1.445     3 C    1.397    15 H    0.969
                            13 C    0.111
     7   6 C    3.966 --     5 C    1.480     9 C    1.156    10 C    1.081
                             2 N    0.105
     8   7 N    3.511 --    10 C    1.181    11 C    1.125    17 H    0.943
                            18 O    0.142
     9   6 C    3.978 --    11 C    1.697     7 C    1.156    21 H    0.972
    10   6 C    3.952 --    18 O    1.557     8 N    1.181     7 C    1.081
    11   6 C    3.947 --     9 C    1.697     8 N    1.125    22 H    0.970
    12   6 C    3.991 --     6 C    1.445    14 C    1.438    19 H    0.970
                             4 C    0.111
    13   6 C    3.991 --     4 C    1.444    14 C    1.439    20 H    0.970
                             6 C    0.111
    14   6 C    3.990 --    13 C    1.439    12 C    1.438    23 H    0.971
                             3 C    0.107
    15   1 H    0.998 --     6 C    0.969
    16   1 H    0.998 --     4 C    0.969
    17   1 H    0.971 --     8 N    0.943
    18   8 O    1.970 --    10 C    1.557     8 N    0.142
    19   1 H    0.997 --    12 C    0.970
    20   1 H    0.997 --    13 C    0.970
    21   1 H    0.999 --     9 C    0.972
    22   1 H    0.998 --    11 C    0.970
    23   1 H    0.998 --    14 C    0.971
    24   1 H    0.997 --     5 C    0.960
 ---------------------------------------------------------------------------

molecular dipole:
                 x           y           z       tot (Debye)
 q only:        0.182      -1.121      -0.006
   full:       -0.079      -0.949      -0.023       2.421

           -------------------------------------------------
          | TOTAL ENERGY              -38.551675482317 Eh   |
          | GRADIENT NORM               0.000225184280 Eh/α |
          | HOMO-LUMO GAP               2.486480136038 eV   |
           -------------------------------------------------

 * finished run on 2023/11/18 at 08:36:09.162
