   * xtb version 6.5.0 (97a52f5) compiled by 'conda@d2599ee0d4f4' on 2022-05-15
          program call               : /home/liuchw/anaconda3/envs/xtbenv/bin/xtb --gfn 2 --chrg 0 --uhf 0 1_16_Index_0-opt-2-3-111_preQMOPTprefit_xyzformat.xyz --opt --input xtb-opt-2-3-111_constr.txt

   ID    Z sym.   atoms
    1    1 H      1, 15-17, 19-24
    2    7 N      2, 8
    3    6 C      3-7, 9-14
    4    8 O      18
constraining angle 1 2 3 4 to  110.9835055°, actual value:  110.9835055°
constraining angle 5 2 3 4 to  292.0012615°, actual value:  -67.9987385°
constraining angle 1 2 5 24 to  183.9638633°, actual value: -176.0361367°
constraining angle 3 2 5 24 to    2.9949579°, actual value:    2.9949579°
constraining angle 2 5 7 9 to  182.0046258°, actual value: -177.9953742°

          :  Hamiltonian                  GFN2-xTB          :
 * total energy  :   -38.5450198 Eh     change       -0.5286935E-09 Eh
 * total energy  :   -38.5522330 Eh     change       -0.7213122E-02 Eh
 * total energy  :   -38.5530843 Eh     change       -0.8513450E-03 Eh
 * total energy  :   -38.5527438 Eh     change        0.3405026E-03 Eh
 * total energy  :   -38.5533459 Eh     change       -0.6021254E-03 Eh
 * total energy  :   -38.5533741 Eh     change       -0.2822105E-04 Eh
 * total energy  :   -38.5533957 Eh     change       -0.2157360E-04 Eh
 * total energy  :   -38.5534033 Eh     change       -0.7598277E-05 Eh
 * total energy  :   -38.5534095 Eh     change       -0.6229847E-05 Eh
 * total energy  :   -38.5534116 Eh     change       -0.2076345E-05 Eh
 * total energy  :   -38.5534144 Eh     change       -0.2818535E-05 Eh
 * total energy  :   -38.5534160 Eh     change       -0.1547359E-05 Eh
 * total energy  :   -38.5534172 Eh     change       -0.1198305E-05 Eh
   *** GEOMETRY OPTIMIZATION CONVERGED AFTER 13 ITERATIONS ***

 final structure:
================
24
 xtb: 6.5.0 (97a52f5)
H           -0.31665710313060       -0.25694526136896       -1.19630392323720
N            0.07651439489232       -0.27925620122722       -0.24903225075218
C            1.22446659081521       -1.03911376158788        0.03743735528462
C            2.42609748193376       -0.40975799978309        0.34471075087134
C           -0.58255926859407        0.47550975532752        0.63542392731513
C            1.18114904159353       -2.42480433615935       -0.07674523608499
C           -1.69841415470676        1.17385230056731        0.27345521922608
N           -3.32228346094315        1.95876452541814       -1.07287591184741
C           -2.54085342139807        2.06714503648658        1.02169310144032
C           -2.23223336009659        1.13409873930086       -1.08324145742565
C           -3.49844028070567        2.51341235271557        0.18588082748259
C            2.31931750850209       -3.17270743300617        0.16247189329261
C            3.55937991803843       -1.16478975729345        0.58743615709637
C            3.50795122303130       -2.54574096575693        0.49891703521030
H            0.25171152444595       -2.90367180475142       -0.34604392857670
H            2.45810129361605        0.66823379417531        0.40575234033588
H           -3.90454197473360        2.14039379072329       -1.87293974387262
O           -1.80902465165063        0.50816469859549       -2.05662669909457
H            2.27932033754930       -4.24893182754756        0.08374405219401
H            4.48850376638461       -0.67221721057950        0.83294308287860
H           -2.41746700689107        2.31733061248078        2.05655741813395
H           -4.30869112804046        3.19284734882501        0.36796954985312
H            4.39491291455501       -3.13252102590421        0.68448802749079
H           -0.17050721446677        0.53968264034964        1.63621241278555

          :  Hamiltonian                  GFN2-xTB          :
         :: total energy             -38.553417184430 Eh    ::
         :: gradient norm              0.000538758626 Eh/a0 ::
         :: HOMO-LUMO gap              2.410231417325 eV    ::
         :: SCC energy               -39.183429409527 Eh    ::
         :: -> dispersion             -0.022133606995 Eh    ::
         :: repulsion energy           0.630145143752 Eh    ::

    * Orbital Energies and Occupations

         #    Occupation            Energy/Eh            Energy/eV
      -------------------------------------------------------------
         1        2.0000           -0.6782286             -18.4555
       ...           ...                  ...                  ...
        23        2.0000           -0.4841466             -13.1743
        24        2.0000           -0.4762065             -12.9582
        25        2.0000           -0.4739326             -12.8964
        26        2.0000           -0.4655426             -12.6681
        27        2.0000           -0.4583521             -12.4724
        28        2.0000           -0.4507626             -12.2659
        29        2.0000           -0.4421738             -12.0322
        30        2.0000           -0.4349243             -11.8349
        31        2.0000           -0.4172371             -11.3536
        32        2.0000           -0.4161624             -11.3244
        33        2.0000           -0.3920851             -10.6692
        34        2.0000           -0.3766787             -10.2499
        35        2.0000           -0.3452053              -9.3935 (HOMO)
        36                         -0.2566309              -6.9833 (LUMO)
        37                         -0.2351728              -6.3994
        38                         -0.2309772              -6.2852
        39                         -0.1651571              -4.4942
        40                         -0.1080009              -2.9389
        41                         -0.1029659              -2.8018
        42                          0.0148645               0.4045
        43                          0.0378005               1.0286
        44                          0.1140724               3.1041
        45                          0.1145657               3.1175
        46                          0.1357967               3.6952
       ...                                ...                  ...
        66                          0.7437671              20.2389
      -------------------------------------------------------------
                  HL-Gap            0.0885744 Eh            2.4102 eV

     #   Z          covCN         q      C6AA      α(0)
     1   1 H        0.859     0.228     0.975     1.547
     2   7 N        2.699    -0.124    23.704     7.231
     3   6 C        2.913     0.068    26.475     8.437
     4   6 C        2.922    -0.042    29.033     8.836
     5   6 C        2.834     0.046    26.964     8.509
     6   6 C        2.923    -0.042    29.055     8.839
     7   6 C        3.090    -0.073    29.717     8.935
     8   7 N        2.776    -0.147    24.182     7.304
     9   6 C        2.982    -0.071    29.767     8.950
    10   6 C        2.873     0.255    22.722     7.814
    11   6 C        2.992     0.000    28.009     8.681
    12   6 C        2.920    -0.026    28.663     8.780
    13   6 C        2.920    -0.027    28.683     8.783
    14   6 C        2.920    -0.031    28.785     8.798
    15   1 H        0.926     0.045     2.378     2.412
    16   1 H        0.926     0.041     2.431     2.438
    17   1 H        0.860     0.167     1.288     1.778
    18   8 O        0.857    -0.492    23.608     6.514
    19   1 H        0.926     0.040     2.448     2.447
    20   1 H        0.926     0.039     2.461     2.453
    21   1 H        0.926     0.030     2.581     2.512
    22   1 H        0.926     0.033     2.545     2.495
    23   1 H        0.926     0.038     2.475     2.460
    24   1 H        0.925     0.046     2.375     2.410

Wiberg/Mayer (AO) data.
largest (>0.10) Wiberg bond orders for each atom

     #   Z sym  total        # sym  WBO       # sym  WBO       # sym  WBO
 ---------------------------------------------------------------------------
     1   1 H    0.948 --     2 N    0.868
     2   7 N    3.526 --     5 C    1.322     3 C    1.030     1 H    0.868
                             7 C    0.100
     3   6 C    3.966 --     4 C    1.392     6 C    1.389     2 N    1.030
                            14 C    0.105
     4   6 C    3.988 --    13 C    1.445     3 C    1.392    16 H    0.969
                            12 C    0.110
     5   6 C    3.971 --     7 C    1.484     2 N    1.322    24 H    0.959
     6   6 C    3.988 --    12 C    1.449     3 C    1.389    15 H    0.969
                            13 C    0.111
     7   6 C    3.965 --     5 C    1.484     9 C    1.156    10 C    1.078
                             2 N    0.100
     8   7 N    3.512 --    10 C    1.180    11 C    1.125    17 H    0.943
                            18 O    0.143
     9   6 C    3.978 --    11 C    1.697     7 C    1.156    21 H    0.972
    10   6 C    3.951 --    18 O    1.560     8 N    1.180     7 C    1.078
    11   6 C    3.945 --     9 C    1.697     8 N    1.125    22 H    0.970
    12   6 C    3.991 --     6 C    1.449    14 C    1.435    19 H    0.970
                             4 C    0.110
    13   6 C    3.991 --     4 C    1.445    14 C    1.438    20 H    0.970
                             6 C    0.111
    14   6 C    3.986 --    13 C    1.438    12 C    1.435    23 H    0.971
                             3 C    0.105
    15   1 H    0.998 --     6 C    0.969
    16   1 H    0.998 --     4 C    0.969
    17   1 H    0.971 --     8 N    0.943
    18   8 O    1.970 --    10 C    1.560     8 N    0.143
    19   1 H    0.997 --    12 C    0.970
    20   1 H    0.998 --    13 C    0.970
    21   1 H    0.999 --     9 C    0.972
    22   1 H    0.998 --    11 C    0.970
    23   1 H    0.999 --    14 C    0.971
    24   1 H    0.997 --     5 C    0.959
 ---------------------------------------------------------------------------

molecular dipole:
                 x           y           z       tot (Debye)
 q only:        0.641      -0.188       0.836
   full:        0.395       0.009       0.810       2.289

           -------------------------------------------------
          | TOTAL ENERGY              -38.553417184430 Eh   |
          | GRADIENT NORM               0.000538758626 Eh/α |
          | HOMO-LUMO GAP               2.410231417325 eV   |
           -------------------------------------------------

 * finished run on 2023/11/18 at 08:33:55.302
