                               Psi4 1.6 release

  ==> Input File <==

--------------------------------------------------------------------------
molecule {
0 1
 H    0.398604    1.015182    0.609640
 N    0.272727    0.065056    0.245519
 C    1.316221   -0.860715    0.304538
 C    1.702714   -1.567128   -0.831728
 C   -0.948052   -0.176421   -0.247196
 C    2.051014   -0.996995    1.479915
 C   -1.901088    0.799198   -0.282172
 N   -2.831831    2.823214    0.044911
 C   -3.269801    0.766262   -0.721813
 C   -1.653326    2.150927    0.211324
 C   -3.789950    1.991324   -0.514186
 C    3.115832   -1.876257    1.531077
 C    2.765143   -2.449414   -0.769824
 C    3.471744   -2.609593    0.410483
 H    1.773282   -0.416763    2.347178
 H    1.156753   -1.428556   -1.753423
 H   -2.975760    3.787181    0.294134
 O   -0.619160    2.614264    0.692598
 H    3.673356   -1.988200    2.449051
 H    3.053894   -3.000547   -1.652483
 H   -3.768261   -0.085144   -1.140376
 H   -4.776463    2.362585   -0.714722
 H    4.304149   -3.295310    0.454038
 H   -1.155986   -1.185171   -0.585203
}
memory 20GB
set_num_threads(5)
psi4_io.set_default_path("/scratch/liuchw/Psi4-1_16_Index_0-farH_in17")
set freeze_core True
E, wfn = energy('wb97x-d/6-311+G*',return_wfn=True)
oeprop(wfn,"WIBERG_LOWDIN_INDICES")
clean()
--------------------------------------------------------------------------

    Molecular point group: c1

    Geometry (in Angstrom), charge = 0, multiplicity = 1:

       Center              X                  Y                   Z               Mass
    ------------   -----------------  -----------------  -----------------  -----------------
         H            0.450821411516     0.907453936577     0.489797460192     1.007825032230
         N            0.324944411516    -0.042672063423     0.125676460192    14.003074004430
         C            1.368438411516    -0.968443063423     0.184695460192    12.000000000000
         C            1.754931411516    -1.674856063423    -0.951570539808    12.000000000000
         C           -0.895834588484    -0.284149063423    -0.367038539808    12.000000000000
         C            2.103231411516    -1.104723063423     1.360072460192    12.000000000000
         C           -1.848870588484     0.691469936577    -0.402014539808    12.000000000000
         N           -2.779613588484     2.715485936577    -0.074931539808    14.003074004430
         C           -3.217583588484     0.658533936577    -0.841655539808    12.000000000000
         C           -1.601108588484     2.043198936577     0.091481460192    12.000000000000
         C           -3.737732588484     1.883595936577    -0.634028539808    12.000000000000
         C            3.168049411516    -1.983985063423     1.411234460192    12.000000000000
         C            2.817360411516    -2.557142063423    -0.889666539808    12.000000000000
         C            3.523961411516    -2.717321063423     0.290640460192    12.000000000000
         H            1.825499411516    -0.524491063423     2.227335460192     1.007825032230
         H            1.208970411516    -1.536284063423    -1.873265539808     1.007825032230
         H           -2.923542588484     3.679452936577     0.174291460192     1.007825032230
         O           -0.566942588484     2.506535936577     0.572755460192    15.994914619570
         H            3.725573411516    -2.095928063423     2.329208460192     1.007825032230
         H            3.106111411516    -3.108275063423    -1.772325539808     1.007825032230
         H           -3.716043588484    -0.192872063423    -1.260218539808     1.007825032230
         H           -4.724245588484     2.254856936577    -0.834564539808     1.007825032230
         H            4.356366411516    -3.403038063423     0.334195460192     1.007825032230
         H           -1.103768588484    -1.292899063423    -0.705045539808     1.007825032230

  Charge       = 0
  Multiplicity = 1
  Basis Set: 6-311+G*
    Blend: 6-311+G*
  Basis Set: (6-311+G* AUX)
    Blend: HEAVY-AUG-CC-PVTZ-JKFIT

    Orbital Energies [Eh]
    ---------------------

    Doubly Occupied:

       1A    -19.206753     2A    -14.472177     3A    -14.463737
       4A    -10.375062     5A    -10.352651     6A    -10.341211
       7A    -10.313345     8A    -10.299230     9A    -10.298626
      10A    -10.298585    11A    -10.297239    12A    -10.294589
      13A    -10.278439    14A    -10.275813    15A     -1.139391
      16A     -1.078585    17A     -1.058872    18A     -0.972558
      19A     -0.906124    20A     -0.865488    21A     -0.861174
      22A     -0.817006    23A     -0.769665    24A     -0.727153
      25A     -0.713948    26A     -0.683996    27A     -0.680674
      28A     -0.643213    29A     -0.603537    30A     -0.588095
      31A     -0.584656    32A     -0.558970    33A     -0.542157
      34A     -0.530422    35A     -0.524214    36A     -0.517471
      37A     -0.512524    38A     -0.499320    39A     -0.484492
      40A     -0.482545    41A     -0.455451    42A     -0.454479
      43A     -0.436157    44A     -0.413452    45A     -0.360137
      46A     -0.345852    47A     -0.339126    48A     -0.319090
      49A     -0.258637

  @DF-RKS Final Energy:  -609.84765180348404

   => Energetics <=

    Nuclear Repulsion Energy =            795.7469208684123032
    One-Electron Energy =               -2404.2765665785509555
    Two-Electron Energy =                1058.0294525382412303
    DFT Exchange-Correlation Energy =     -59.3347406879183410
    Empirical Dispersion Energy =          -0.0127179436682972
    VV10 Nonlocal Energy =                  0.0000000000000000
    Total Energy =                       -609.8476518034840410
 Dipole X            :         -2.3418574            2.0722214           -0.2696360
 Dipole Y            :          4.1746123           -4.9755794           -0.8009670
 Dipole Z            :          0.5442901           -0.8322976           -0.2880075
 Magnitude           :                                                    0.8928606
*** Psi4 exiting successfully. Buy a developer a beer!
