   * xtb version 6.5.0 (97a52f5) compiled by 'conda@d2599ee0d4f4' on 2022-05-15
          program call               : /home/liuchw/anaconda3/envs/xtbenv/bin/xtb --gfn 2 --chrg 0 --uhf 0 1_16_Index_0-opt-2-3-141_preQMOPTprefit_xyzformat.xyz --opt --input xtb-opt-2-3-141_constr.txt

   ID    Z sym.   atoms
    1    1 H      1, 15-17, 19-24
    2    7 N      2, 8
    3    6 C      3-7, 9-14
    4    8 O      18
constraining angle 1 2 3 4 to  140.9699812°, actual value:  140.9699812°
constraining angle 5 2 3 4 to  321.9790592°, actual value:  -38.0209408°
constraining angle 1 2 5 24 to  183.9550700°, actual value: -176.0449300°
constraining angle 3 2 5 24 to    2.9940642°, actual value:    2.9940642°
constraining angle 2 5 7 9 to  182.0035040°, actual value: -177.9964960°

          :  Hamiltonian                  GFN2-xTB          :
 * total energy  :   -38.5498486 Eh     change       -0.9158256E-09 Eh
 * total energy  :   -38.5576461 Eh     change       -0.7797505E-02 Eh
 * total energy  :   -38.5588609 Eh     change       -0.1214867E-02 Eh
 * total energy  :   -38.5587270 Eh     change        0.1338973E-03 Eh
 * total energy  :   -38.5591133 Eh     change       -0.3862907E-03 Eh
 * total energy  :   -38.5591436 Eh     change       -0.3030666E-04 Eh
 * total energy  :   -38.5591643 Eh     change       -0.2067391E-04 Eh
 * total energy  :   -38.5591771 Eh     change       -0.1274555E-04 Eh
 * total energy  :   -38.5591816 Eh     change       -0.4584569E-05 Eh
 * total energy  :   -38.5591864 Eh     change       -0.4744421E-05 Eh
   *** GEOMETRY OPTIMIZATION CONVERGED AFTER 10 ITERATIONS ***

 final structure:
================
24
 xtb: 6.5.0 (97a52f5)
H           -0.49532259215444       -0.51581168474590       -1.03839450752762
N            0.03530410659885       -0.34130227248520       -0.17839974472796
C            1.19302509408804       -1.06851532552620        0.07477895478657
C            2.31696863898258       -0.47659595224821        0.64852132080044
C           -0.48642549269486        0.61931027181282        0.59570935244433
C            1.25907559422504       -2.39818216821578       -0.34051101534151
C           -1.63888728029350        1.25867613064667        0.24259706189105
N           -3.44600167785271        1.78450520017150       -0.99461813523227
C           -2.35530259413309        2.32862543467583        0.88286919308140
C           -2.37355257766500        0.93725253956749       -0.97877369369021
C           -3.42616112525070        2.61297586372096        0.11689634975720
C            2.40776465614664       -3.13487411916932       -0.12879437654915
C            3.46003975683574       -1.22389567093949        0.86156750672815
C            3.50913751902570       -2.55426177290950        0.48021717439418
H            0.39954637933073       -2.84274396971250       -0.81978186541386
H            2.29126739360635        0.56611592699085        0.92791111033970
H           -4.14249924852395        1.80627494911651       -1.72026184906614
O           -2.10710554024109        0.09461789665192       -1.83536785874775
H            2.44643558984026       -4.16744370676044       -0.44237106558559
H            4.32383036249702       -0.75882117440287        1.31324004075280
H           -2.07523278759817        2.79955039534195        1.80390506881644
H           -4.19602339709357        3.34714305013686        0.25668590986906
H            4.40529782565876       -3.13258446500640        0.64569511481892
H            0.06057338666524        0.89896262328832        1.48796495340138

          :  Hamiltonian                  GFN2-xTB          :
         :: total energy             -38.559186390225 Eh    ::
         :: gradient norm              0.000734450996 Eh/a0 ::
         :: HOMO-LUMO gap              2.279986528689 eV    ::
         :: SCC energy               -39.190157106425 Eh    ::
         :: -> dispersion             -0.022191882333 Eh    ::
         :: repulsion energy           0.631128917812 Eh    ::

    * Orbital Energies and Occupations

         #    Occupation            Energy/Eh            Energy/eV
      -------------------------------------------------------------
         1        2.0000           -0.6827504             -18.5786
       ...           ...                  ...                  ...
        23        2.0000           -0.4844647             -13.1830
        24        2.0000           -0.4787229             -13.0267
        25        2.0000           -0.4741832             -12.9032
        26        2.0000           -0.4691886             -12.7673
        27        2.0000           -0.4603530             -12.5268
        28        2.0000           -0.4551090             -12.3841
        29        2.0000           -0.4403252             -11.9819
        30        2.0000           -0.4315003             -11.7417
        31        2.0000           -0.4202993             -11.4369
        32        2.0000           -0.4128068             -11.2330
        33        2.0000           -0.3900733             -10.6144
        34        2.0000           -0.3809764             -10.3669
        35        2.0000           -0.3487858              -9.4909 (HOMO)
        36                         -0.2649978              -7.2110 (LUMO)
        37                         -0.2304585              -6.2711
        38                         -0.2163092              -5.8861
        39                         -0.1689310              -4.5968
        40                         -0.1116235              -3.0374
        41                         -0.0949935              -2.5849
        42                          0.0217704               0.5924
        43                          0.0350892               0.9548
        44                          0.1044085               2.8411
        45                          0.1184733               3.2238
        46                          0.1275223               3.4701
       ...                                ...                  ...
        66                          0.7409759              20.1630
      -------------------------------------------------------------
                  HL-Gap            0.0837880 Eh            2.2800 eV

     #   Z          covCN         q      C6AA      α(0)
     1   1 H        0.859     0.227     0.979     1.550
     2   7 N        2.701    -0.111    23.428     7.189
     3   6 C        2.911     0.067    26.497     8.441
     4   6 C        2.922    -0.046    29.151     8.854
     5   6 C        2.833     0.041    27.064     8.525
     6   6 C        2.924    -0.048    29.198     8.861
     7   6 C        3.089    -0.069    29.608     8.919
     8   7 N        2.775    -0.146    24.163     7.301
     9   6 C        2.981    -0.071    29.772     8.950
    10   6 C        2.872     0.256    22.697     7.810
    11   6 C        2.991     0.002    27.961     8.674
    12   6 C        2.919    -0.026    28.663     8.779
    13   6 C        2.919    -0.028    28.700     8.785
    14   6 C        2.919    -0.035    28.880     8.813
    15   1 H        0.926     0.043     2.411     2.428
    16   1 H        0.926     0.037     2.496     2.470
    17   1 H        0.860     0.169     1.279     1.771
    18   8 O        0.857    -0.487    23.498     6.499
    19   1 H        0.926     0.038     2.478     2.462
    20   1 H        0.926     0.036     2.502     2.474
    21   1 H        0.926     0.032     2.552     2.498
    22   1 H        0.926     0.035     2.516     2.480
    23   1 H        0.926     0.035     2.515     2.480
    24   1 H        0.925     0.050     2.319     2.381

Wiberg/Mayer (AO) data.
largest (>0.10) Wiberg bond orders for each atom

     #   Z sym  total        # sym  WBO       # sym  WBO       # sym  WBO
 ---------------------------------------------------------------------------
     1   1 H    0.948 --     2 N    0.876
     2   7 N    3.556 --     5 C    1.303     3 C    1.081     1 H    0.876
     3   6 C    3.965 --     4 C    1.368     6 C    1.362     2 N    1.081
     4   6 C    3.985 --    13 C    1.452     3 C    1.368    16 H    0.967
                            12 C    0.105
     5   6 C    3.971 --     7 C    1.495     2 N    1.303    24 H    0.956
     6   6 C    3.985 --    12 C    1.460     3 C    1.362    15 H    0.968
                            13 C    0.107
     7   6 C    3.963 --     5 C    1.495     9 C    1.156    10 C    1.070
     8   7 N    3.513 --    10 C    1.180    11 C    1.126    17 H    0.943
                            18 O    0.143
     9   6 C    3.978 --    11 C    1.696     7 C    1.156    21 H    0.972
    10   6 C    3.949 --    18 O    1.569     8 N    1.180     7 C    1.070
    11   6 C    3.938 --     9 C    1.696     8 N    1.126    22 H    0.970
    12   6 C    3.991 --     6 C    1.460    14 C    1.427    19 H    0.970
                             4 C    0.105
    13   6 C    3.992 --     4 C    1.452    14 C    1.434    20 H    0.971
                             6 C    0.107
    14   6 C    3.973 --    13 C    1.434    12 C    1.427    23 H    0.971
    15   1 H    0.998 --     6 C    0.968
    16   1 H    0.999 --     4 C    0.967
    17   1 H    0.971 --     8 N    0.943
    18   8 O    1.972 --    10 C    1.569     8 N    0.143
    19   1 H    0.998 --    12 C    0.970
    20   1 H    0.998 --    13 C    0.971
    21   1 H    0.999 --     9 C    0.972
    22   1 H    0.998 --    11 C    0.970
    23   1 H    0.999 --    14 C    0.971
    24   1 H    0.997 --     5 C    0.956
 ---------------------------------------------------------------------------

molecular dipole:
                 x           y           z       tot (Debye)
 q only:        0.525       0.130       0.708
   full:        0.275       0.332       0.673       2.030

           -------------------------------------------------
          | TOTAL ENERGY              -38.559186390225 Eh   |
          | GRADIENT NORM               0.000734450996 Eh/α |
          | HOMO-LUMO GAP               2.279986528689 eV   |
           -------------------------------------------------

 * finished run on 2023/11/18 at 08:34:13.739
