                               Psi4 1.6 release

  ==> Input File <==

--------------------------------------------------------------------------
molecule {
0 1
 H    0.256414    0.571245   -0.949496
 N    0.218529   -0.078475   -0.156031
 C    1.291951   -0.926685    0.054043
 C    2.526222   -0.585272   -0.502748
 C   -0.901700    0.030741    0.571626
 C    1.189406   -2.091530    0.814389
 C   -1.883436    0.909374    0.216329
 N   -2.932651    2.511781   -0.969983
 C   -3.134639    1.225380    0.850833
 C   -1.785121    1.769470   -0.961773
 C   -3.732295    2.180881    0.113015
 C    2.299734   -2.891270    1.008642
 C    3.627696   -1.392935   -0.304923
 C    3.521435   -2.547488    0.454999
 H    0.239765   -2.383207    1.236108
 H    2.603697    0.315080   -1.094409
 H   -3.158823    3.200847   -1.667302
 O   -0.872827    1.843326   -1.784189
 H    2.207277   -3.794032    1.594324
 H    4.576818   -1.119102   -0.741105
 H   -3.509616    0.769345    1.745214
 H   -4.675086    2.672249    0.257881
 H    4.384109   -3.177018    0.610568
 H   -0.991104   -0.573730    1.465268
}
memory 20GB
set_num_threads(5)
psi4_io.set_default_path("/scratch/liuchw/Psi4-1_16_Index_0-farH_in17")
set freeze_core True
E, wfn = energy('wb97x-d/6-311+G*',return_wfn=True)
oeprop(wfn,"WIBERG_LOWDIN_INDICES")
clean()
--------------------------------------------------------------------------

    Molecular point group: c1

    Geometry (in Angstrom), charge = 0, multiplicity = 1:

       Center              X                  Y                   Z               Mass
    ------------   -----------------  -----------------  -----------------  -----------------
         H            0.330507288666     0.527286626235    -0.873957530054     1.007825032230
         N            0.292622288666    -0.122433373765    -0.080492530054    14.003074004430
         C            1.366044288666    -0.970643373765     0.129581469946    12.000000000000
         C            2.600315288666    -0.629230373765    -0.427209530054    12.000000000000
         C           -0.827606711334    -0.013217373765     0.647164469946    12.000000000000
         C            1.263499288666    -2.135488373765     0.889927469946    12.000000000000
         C           -1.809342711334     0.865415626235     0.291867469946    12.000000000000
         N           -2.858557711334     2.467822626235    -0.894444530054    14.003074004430
         C           -3.060545711334     1.181421626235     0.926371469946    12.000000000000
         C           -1.711027711334     1.725511626235    -0.886234530054    12.000000000000
         C           -3.658201711334     2.136922626235     0.188553469946    12.000000000000
         C            2.373827288666    -2.935228373765     1.084180469946    12.000000000000
         C            3.701789288666    -1.436893373765    -0.229384530054    12.000000000000
         C            3.595528288666    -2.591446373765     0.530537469946    12.000000000000
         H            0.313858288666    -2.427165373765     1.311646469946     1.007825032230
         H            2.677790288666     0.271121626235    -1.018870530054     1.007825032230
         H           -3.084729711334     3.156888626235    -1.591763530054     1.007825032230
         O           -0.798733711334     1.799367626235    -1.708650530054    15.994914619570
         H            2.281370288666    -3.837990373765     1.669862469946     1.007825032230
         H            4.650911288666    -1.163060373765    -0.665566530054     1.007825032230
         H           -3.435522711334     0.725386626235     1.820752469946     1.007825032230
         H           -4.600992711334     2.628290626235     0.333419469946     1.007825032230
         H            4.458202288666    -3.220976373765     0.686106469946     1.007825032230
         H           -0.917010711334    -0.617688373765     1.540806469946     1.007825032230

  Charge       = 0
  Multiplicity = 1
  Basis Set: 6-311+G*
    Blend: 6-311+G*
  Basis Set: (6-311+G* AUX)
    Blend: HEAVY-AUG-CC-PVTZ-JKFIT

    Orbital Energies [Eh]
    ---------------------

    Doubly Occupied:

       1A    -19.211029     2A    -14.477738     3A    -14.467165
       4A    -10.379496     5A    -10.355621     6A    -10.343467
       7A    -10.317363     8A    -10.297014     9A    -10.295970
      10A    -10.295862    11A    -10.293829    12A    -10.288770
      13A    -10.283978    14A    -10.278948    15A     -1.143735
      16A     -1.083353    17A     -1.062801    18A     -0.970280
      19A     -0.909744    20A     -0.864814    21A     -0.860973
      22A     -0.818975    23A     -0.774649    24A     -0.730102
      25A     -0.713915    26A     -0.685909    27A     -0.676742
      28A     -0.645047    29A     -0.605352    30A     -0.591933
      31A     -0.586221    32A     -0.546633    33A     -0.543230
      34A     -0.534745    35A     -0.522471    36A     -0.519641
      37A     -0.514021    38A     -0.504960    39A     -0.498281
      40A     -0.485630    41A     -0.453921    42A     -0.450532
      43A     -0.437475    44A     -0.417265    45A     -0.367073
      46A     -0.343902    47A     -0.342824    48A     -0.313651
      49A     -0.258886

  @DF-RKS Final Energy:  -609.84967461716315

   => Energetics <=

    Nuclear Repulsion Energy =            796.0797604984926465
    One-Electron Energy =               -2404.8057844775134981
    Two-Electron Energy =                1058.2253929270075332
    DFT Exchange-Correlation Energy =     -59.3363192589235453
    Empirical Dispersion Energy =          -0.0127243062263202
    VV10 Nonlocal Energy =                  0.0000000000000000
    Total Energy =                       -609.8496746171631457
 Dipole X            :         -2.8615085            2.5107682           -0.3507404
 Dipole Y            :          3.4265200           -3.7085830           -0.2820631
 Dipole Z            :         -2.2818968            3.0061821            0.7242853
 Magnitude           :                                                    0.8527412
*** Psi4 exiting successfully. Buy a developer a beer!
