                               Psi4 1.6 release

  ==> Input File <==

--------------------------------------------------------------------------
molecule {
0 1
 H    0.482860    1.117518    0.243083
 N    0.306745    0.112066    0.133500
 C    1.358638   -0.823660    0.229926
 C    1.946340   -1.332047   -0.922355
 C   -0.974667   -0.196810   -0.080801
 C    1.838821   -1.205228    1.477328
 C   -1.927418    0.777124   -0.174349
 N   -2.790268    2.855279   -0.166168
 C   -3.350975    0.697252   -0.360220
 C   -1.601083    2.192016   -0.048249
 C   -3.829821    1.956399   -0.352684
 C    2.885708   -2.104968    1.567956
 C    2.991289   -2.233508   -0.824381
 C    3.461446   -2.621260    0.419039
 H    1.385101   -0.794754    2.367071
 H    1.573328   -1.021462   -1.887023
 H   -2.890050    3.855302   -0.120328
 O   -0.498692    2.711901    0.137129
 H    3.253268   -2.403456    2.538448
 H    3.443431   -2.629267   -1.721608
 H   -3.911959   -0.207495   -0.484959
 H   -4.836556    2.310668   -0.463362
 H    4.278336   -3.323284    0.492788
 H   -1.228064   -1.249347   -0.138502
}
memory 20GB
set_num_threads(5)
psi4_io.set_default_path("/scratch/liuchw/Psi4-1_16_Index_0-farH_in17")
set freeze_core True
E, wfn = energy('wb97x-d/6-311+G*',return_wfn=True)
oeprop(wfn,"WIBERG_LOWDIN_INDICES")
clean()
--------------------------------------------------------------------------

    Molecular point group: c1

    Geometry (in Angstrom), charge = 0, multiplicity = 1:

       Center              X                  Y                   Z               Mass
    ------------   -----------------  -----------------  -----------------  -----------------
         H            0.523769087572     1.000295322436     0.169230069136     1.007825032230
         N            0.347654087572    -0.005156677564     0.059647069136    14.003074004430
         C            1.399547087572    -0.940882677564     0.156073069136    12.000000000000
         C            1.987249087572    -1.449269677564    -0.996207930864    12.000000000000
         C           -0.933757912428    -0.314032677564    -0.154653930864    12.000000000000
         C            1.879730087572    -1.322450677564     1.403475069136    12.000000000000
         C           -1.886508912428     0.659901322436    -0.248201930864    12.000000000000
         N           -2.749358912428     2.738056322436    -0.240020930864    14.003074004430
         C           -3.310065912428     0.580029322436    -0.434072930864    12.000000000000
         C           -1.560173912428     2.074793322436    -0.122101930864    12.000000000000
         C           -3.788911912428     1.839176322436    -0.426536930864    12.000000000000
         C            2.926617087572    -2.222190677564     1.494103069136    12.000000000000
         C            3.032198087572    -2.350730677564    -0.898233930864    12.000000000000
         C            3.502355087572    -2.738482677564     0.345186069136    12.000000000000
         H            1.426010087572    -0.911976677564     2.293218069136     1.007825032230
         H            1.614237087572    -1.138684677564    -1.960875930864     1.007825032230
         H           -2.849140912428     3.738079322436    -0.194180930864     1.007825032230
         O           -0.457782912428     2.594678322436     0.063276069136    15.994914619570
         H            3.294177087572    -2.520678677564     2.464595069136     1.007825032230
         H            3.484340087572    -2.746489677564    -1.795460930864     1.007825032230
         H           -3.871049912428    -0.324717677564    -0.558811930864     1.007825032230
         H           -4.795646912428     2.193445322436    -0.537214930864     1.007825032230
         H            4.319245087572    -3.440506677564     0.418935069136     1.007825032230
         H           -1.187154912428    -1.366569677564    -0.212354930864     1.007825032230

  Charge       = 0
  Multiplicity = 1
  Basis Set: 6-311+G*
    Blend: 6-311+G*
  Basis Set: (6-311+G* AUX)
    Blend: HEAVY-AUG-CC-PVTZ-JKFIT

    Orbital Energies [Eh]
    ---------------------

    Doubly Occupied:

       1A    -19.203055     2A    -14.466267     3A    -14.460836
       4A    -10.371117     5A    -10.350602     6A    -10.339538
       7A    -10.309807     8A    -10.301229     9A    -10.301102
      10A    -10.300653    11A    -10.300474    12A    -10.299698
      13A    -10.273794    14A    -10.273081    15A     -1.135553
      16A     -1.072640    17A     -1.055410    18A     -0.974824
      19A     -0.903018    20A     -0.866868    21A     -0.861264
      22A     -0.814799    23A     -0.765378    24A     -0.722360
      25A     -0.716067    26A     -0.683919    27A     -0.680766
      28A     -0.642151    29A     -0.602321    30A     -0.586220
      31A     -0.579060    32A     -0.568490    33A     -0.542424
      34A     -0.527530    35A     -0.525329    36A     -0.515176
      37A     -0.509720    38A     -0.495875    39A     -0.479948
      40A     -0.474567    41A     -0.459833    42A     -0.455175
      43A     -0.432353    44A     -0.409999    45A     -0.351692
      46A     -0.347738    47A     -0.334033    48A     -0.328507
      49A     -0.257893

  @DF-RKS Final Energy:  -609.84435002753185

   => Energetics <=

    Nuclear Repulsion Energy =            795.1922433647102935
    One-Electron Energy =               -2403.2941307902456174
    Two-Electron Energy =                1057.6025488015416158
    DFT Exchange-Correlation Energy =     -59.3324204796662897
    Empirical Dispersion Energy =          -0.0125909238716869
    VV10 Nonlocal Energy =                  0.0000000000000000
    Total Energy =                       -609.8443500275317319
 Dipole X            :         -1.9818595            1.8410781           -0.1407814
 Dipole Y            :          4.1674820           -5.1682430           -1.0007610
 Dipole Z            :         -0.1138838            0.0824616           -0.0314223
 Magnitude           :                                                    1.0111030
*** Psi4 exiting successfully. Buy a developer a beer!
