   * xtb version 6.5.0 (97a52f5) compiled by 'conda@d2599ee0d4f4' on 2022-05-15
          program call               : /home/liuchw/anaconda3/envs/xtbenv/bin/xtb --gfn 2 --chrg 0 --uhf 0 1_16_Index_0-opt-2-3-081_preQMOPTprefit_xyzformat.xyz --opt --input xtb-opt-2-3-081_constr.txt

   ID    Z sym.   atoms
    1    1 H      1, 15-17, 19-24
    2    7 N      2, 8
    3    6 C      3-7, 9-14
    4    8 O      18
constraining angle 1 2 3 4 to   80.9915315°, actual value:   80.9915315°
constraining angle 5 2 3 4 to  262.0135536°, actual value:  -97.9864464°
constraining angle 1 2 5 24 to  183.9668113°, actual value: -176.0331887°
constraining angle 3 2 5 24 to    2.9939167°, actual value:    2.9939167°
constraining angle 2 5 7 9 to  182.0023340°, actual value: -177.9976660°

          :  Hamiltonian                  GFN2-xTB          :
 * total energy  :   -38.5435426 Eh     change       -0.8358327E-09 Eh
 * total energy  :   -38.5505641 Eh     change       -0.7021490E-02 Eh
 * total energy  :   -38.5513952 Eh     change       -0.8311320E-03 Eh
 * total energy  :   -38.5513791 Eh     change        0.1609337E-04 Eh
 * total energy  :   -38.5516252 Eh     change       -0.2460901E-03 Eh
 * total energy  :   -38.5516481 Eh     change       -0.2282625E-04 Eh
 * total energy  :   -38.5516651 Eh     change       -0.1708289E-04 Eh
 * total energy  :   -38.5516704 Eh     change       -0.5277511E-05 Eh
 * total energy  :   -38.5516731 Eh     change       -0.2660460E-05 Eh
 * total energy  :   -38.5516740 Eh     change       -0.9271753E-06 Eh
   *** GEOMETRY OPTIMIZATION CONVERGED AFTER 10 ITERATIONS ***

 final structure:
================
24
 xtb: 6.5.0 (97a52f5)
H           -0.10670287990968        0.07707160395728       -1.26775743725304
N            0.14416001231370       -0.18301092302537       -0.30654622505171
C            1.27610646968155       -0.98245931112743       -0.04121054457675
C            2.54202773735689       -0.40949024206277       -0.00509248440097
C           -0.67497347827971        0.31609453258329        0.62229810075014
C            1.12288986131310       -2.33740949457685        0.22776830984145
C           -1.75912404011978        1.06892162935419        0.27158510017871
N           -3.19642879832180        2.14686088700832       -1.08348870840403
C           -2.75019711003936        1.73697669925379        1.07102295747642
C           -2.07854001618618        1.36177462633411       -1.12007296310650
C           -3.59148517312352        2.36611282069080        0.22773551245095
C            2.23198533200831       -3.11605754283253        0.50640323900665
C            3.64701460818354       -1.19435236698391        0.27157902573809
C            3.49423515978593       -2.54702665811726        0.52671763688444
H            0.13390222661219       -2.77083233322016        0.21133223735915
H            2.65091000719074        0.64627962291107       -0.20393005916891
H           -3.66079120415487        2.51296214185712       -1.89738979691508
O           -1.48123223062378        1.00225755466299       -2.13698524644339
H            2.10981154593122       -4.16963986762575        0.70910940492000
H            4.62963634297459       -0.74719643198174        0.29490903987216
H           -2.79856823815862        1.72265753349805        2.14167149884218
H           -4.45571952855602        2.96628607405371        0.43771606862467
H            4.35824525386542       -3.15667604644524        0.74424782398543
H           -0.42140984974382        0.12887446183429        1.65965950939003

          :  Hamiltonian                  GFN2-xTB          :
         :: total energy             -38.551673999164 Eh    ::
         :: gradient norm              0.000433483630 Eh/a0 ::
         :: HOMO-LUMO gap              2.486853690460 eV    ::
         :: SCC energy               -39.181477717401 Eh    ::
         :: -> dispersion             -0.022133729596 Eh    ::
         :: repulsion energy           0.629930470440 Eh    ::

    * Orbital Energies and Occupations

         #    Occupation            Energy/Eh            Energy/eV
      -------------------------------------------------------------
         1        2.0000           -0.6769713             -18.4213
       ...           ...                  ...                  ...
        23        2.0000           -0.4843448             -13.1797
        24        2.0000           -0.4753429             -12.9347
        25        2.0000           -0.4734235             -12.8825
        26        2.0000           -0.4644678             -12.6388
        27        2.0000           -0.4579184             -12.4606
        28        2.0000           -0.4494981             -12.2315
        29        2.0000           -0.4425238             -12.0417
        30        2.0000           -0.4359295             -11.8622
        31        2.0000           -0.4184769             -11.3873
        32        2.0000           -0.4157491             -11.3131
        33        2.0000           -0.3923952             -10.6776
        34        2.0000           -0.3753407             -10.2135
        35        2.0000           -0.3440616              -9.3624 (HOMO)
        36                         -0.2526714              -6.8755 (LUMO)
        37                         -0.2367675              -6.4428
        38                         -0.2364897              -6.4352
        39                         -0.1640575              -4.4642
        40                         -0.1078334              -2.9343
        41                         -0.1040006              -2.8300
        42                          0.0121166               0.3297
        43                          0.0387240               1.0537
        44                          0.1133106               3.0833
        45                          0.1158916               3.1536
        46                          0.1359665               3.6998
       ...                                ...                  ...
        66                          0.7442982              20.2534
      -------------------------------------------------------------
                  HL-Gap            0.0913902 Eh            2.4869 eV

     #   Z          covCN         q      C6AA      α(0)
     1   1 H        0.859     0.228     0.974     1.546
     2   7 N        2.699    -0.129    23.791     7.244
     3   6 C        2.912     0.069    26.455     8.434
     4   6 C        2.922    -0.041    29.015     8.833
     5   6 C        2.834     0.047    26.929     8.504
     6   6 C        2.923    -0.040    28.994     8.830
     7   6 C        3.091    -0.075    29.752     8.940
     8   7 N        2.776    -0.147    24.184     7.304
     9   6 C        2.982    -0.071    29.764     8.949
    10   6 C        2.874     0.255    22.732     7.816
    11   6 C        2.992    -0.000    28.027     8.684
    12   6 C        2.920    -0.027    28.673     8.781
    13   6 C        2.920    -0.027    28.668     8.780
    14   6 C        2.920    -0.030    28.759     8.794
    15   1 H        0.926     0.044     2.395     2.420
    16   1 H        0.926     0.045     2.388     2.417
    17   1 H        0.860     0.167     1.290     1.779
    18   8 O        0.857    -0.494    23.646     6.520
    19   1 H        0.926     0.040     2.445     2.445
    20   1 H        0.926     0.040     2.443     2.444
    21   1 H        0.926     0.030     2.590     2.517
    22   1 H        0.926     0.032     2.554     2.499
    23   1 H        0.926     0.039     2.463     2.454
    24   1 H        0.925     0.044     2.397     2.421

Wiberg/Mayer (AO) data.
largest (>0.10) Wiberg bond orders for each atom

     #   Z sym  total        # sym  WBO       # sym  WBO       # sym  WBO
 ---------------------------------------------------------------------------
     1   1 H    0.948 --     2 N    0.865
     2   7 N    3.517 --     5 C    1.329     3 C    1.014     1 H    0.865
                             7 C    0.105
     3   6 C    3.967 --     6 C    1.398     4 C    1.397     2 N    1.014
                            14 C    0.107
     4   6 C    3.989 --    13 C    1.445     3 C    1.397    16 H    0.969
                            12 C    0.111
     5   6 C    3.971 --     7 C    1.480     2 N    1.329    24 H    0.959
     6   6 C    3.989 --    12 C    1.444     3 C    1.398    15 H    0.969
                            13 C    0.111
     7   6 C    3.966 --     5 C    1.480     9 C    1.156    10 C    1.081
                             2 N    0.105
     8   7 N    3.512 --    10 C    1.181    11 C    1.125    17 H    0.943
                            18 O    0.142
     9   6 C    3.978 --    11 C    1.697     7 C    1.156    21 H    0.972
    10   6 C    3.952 --    18 O    1.556     8 N    1.181     7 C    1.081
    11   6 C    3.947 --     9 C    1.697     8 N    1.125    22 H    0.970
    12   6 C    3.991 --     6 C    1.444    14 C    1.439    19 H    0.970
                             4 C    0.111
    13   6 C    3.991 --     4 C    1.445    14 C    1.438    20 H    0.970
                             6 C    0.111
    14   6 C    3.990 --    12 C    1.439    13 C    1.438    23 H    0.971
                             3 C    0.107
    15   1 H    0.998 --     6 C    0.969
    16   1 H    0.998 --     4 C    0.969
    17   1 H    0.971 --     8 N    0.943
    18   8 O    1.970 --    10 C    1.556     8 N    0.142
    19   1 H    0.998 --    12 C    0.970
    20   1 H    0.997 --    13 C    0.970
    21   1 H    0.999 --     9 C    0.972
    22   1 H    0.998 --    11 C    0.970
    23   1 H    0.998 --    14 C    0.971
    24   1 H    0.997 --     5 C    0.959
 ---------------------------------------------------------------------------

molecular dipole:
                 x           y           z       tot (Debye)
 q only:        0.588      -0.414       0.884
   full:        0.337      -0.229       0.868       2.437

           -------------------------------------------------
          | TOTAL ENERGY              -38.551673999164 Eh   |
          | GRADIENT NORM               0.000433483630 Eh/α |
          | HOMO-LUMO GAP               2.486853690460 eV   |
           -------------------------------------------------

 * finished run on 2023/11/18 at 08:33:37.479
