   * xtb version 6.5.0 (97a52f5) compiled by 'conda@d2599ee0d4f4' on 2022-05-15
          program call               : /home/liuchw/anaconda3/envs/xtbenv/bin/xtb --gfn 2 --chrg 0 --uhf 0 1_16_Index_0-opt-2-3-201_preQMOPTprefit_xyzformat.xyz --opt --input xtb-opt-2-3-201_constr.txt

   ID    Z sym.   atoms
    1    1 H      1, 15-17, 19-24
    2    7 N      2, 8
    3    6 C      3-7, 9-14
    4    8 O      18
constraining angle 1 2 3 4 to  201.0130543°, actual value: -158.9869457°
constraining angle 5 2 3 4 to   22.0448716°, actual value:   22.0448716°
constraining angle 1 2 5 24 to  183.9788311°, actual value: -176.0211689°
constraining angle 3 2 5 24 to    2.9968643°, actual value:    2.9968643°
constraining angle 2 5 7 9 to  182.0025275°, actual value: -177.9974725°

          :  Hamiltonian                  GFN2-xTB          :
 * total energy  :   -38.5516674 Eh     change       -0.6344294E-09 Eh
 * total energy  :   -38.5598211 Eh     change       -0.8153742E-02 Eh
 * total energy  :   -38.5609951 Eh     change       -0.1174014E-02 Eh
 * total energy  :   -38.5596408 Eh     change        0.1354374E-02 Eh
 * total energy  :   -38.5614404 Eh     change       -0.1799604E-02 Eh
 * total energy  :   -38.5614799 Eh     change       -0.3955496E-04 Eh
 * total energy  :   -38.5615113 Eh     change       -0.3133430E-04 Eh
 * total energy  :   -38.5615226 Eh     change       -0.1138347E-04 Eh
 * total energy  :   -38.5615303 Eh     change       -0.7622796E-05 Eh
 * total energy  :   -38.5615385 Eh     change       -0.8213436E-05 Eh
 * total energy  :   -38.5615426 Eh     change       -0.4167673E-05 Eh
 * total energy  :   -38.5615457 Eh     change       -0.3085178E-05 Eh
   *** GEOMETRY OPTIMIZATION CONVERGED AFTER 12 ITERATIONS ***

 final structure:
================
24
 xtb: 6.5.0 (97a52f5)
H           -0.75887242144723       -0.84385566219877       -0.58960682461998
N           -0.00534601637289       -0.38796725985742       -0.06348088893352
C            1.18189036660514       -1.07565377501211        0.11731229662068
C            2.08261232510601       -0.76284274196222        1.13554720421591
C           -0.31428558359774        0.84772259549476        0.35424422778143
C            1.45564180576207       -2.15737594885165       -0.72227153611496
C           -1.54567716872761        1.38217204807423        0.10995074332444
N           -3.65237310241781        1.52100003073799       -0.67647830511948
C           -2.08286664981094        2.67896654936337        0.42200690874876
C           -2.59429901210486        0.65836833599269       -0.60718721818963
C           -3.34011160655360        2.72260302892258       -0.05972177755909
C            2.62029771890284       -2.88200100751408       -0.56897772075868
C            3.24720629442544       -1.49312636229728        1.27802306177944
C            3.52494226987011       -2.54999937935894        0.42752378173215
H            0.74630309116531       -2.41461179469722       -1.49521409453459
H            1.87037431383769        0.04402786747708        1.82005884713207
H           -4.53170208871128        1.30657547310613       -1.11577165315281
O           -2.55998918830894       -0.47978446929477       -1.07310628691936
H            2.82472801692853       -3.71118299159285       -1.22974801825804
H            3.93819717960671       -1.24048714697473        2.06874998934557
H           -1.56464609749633        3.45649829188830        0.94675235477599
H           -4.06285840559926        3.51483396998153       -0.02367010825836
H            4.43549336142603       -3.11700038965473        0.54593933834137
H            0.45109059751246        1.42210072822814        0.86041165862070

          :  Hamiltonian                  GFN2-xTB          :
         :: total energy             -38.561545727701 Eh    ::
         :: gradient norm              0.000334514361 Eh/a0 ::
         :: HOMO-LUMO gap              2.234609375157 eV    ::
         :: SCC energy               -39.192842353381 Eh    ::
         :: -> dispersion             -0.022206039815 Eh    ::
         :: repulsion energy           0.631468892699 Eh    ::

    * Orbital Energies and Occupations

         #    Occupation            Energy/Eh            Energy/eV
      -------------------------------------------------------------
         1        2.0000           -0.6846732             -18.6309
       ...           ...                  ...                  ...
        23        2.0000           -0.4838453             -13.1661
        24        2.0000           -0.4794656             -13.0469
        25        2.0000           -0.4733134             -12.8795
        26        2.0000           -0.4706929             -12.8082
        27        2.0000           -0.4612991             -12.5526
        28        2.0000           -0.4569196             -12.4334
        29        2.0000           -0.4392162             -11.9517
        30        2.0000           -0.4296587             -11.6916
        31        2.0000           -0.4228331             -11.5059
        32        2.0000           -0.4111061             -11.1868
        33        2.0000           -0.3891043             -10.5881
        34        2.0000           -0.3826275             -10.4118
        35        2.0000           -0.3500163              -9.5244 (HOMO)
        36                         -0.2678959              -7.2898 (LUMO)
        37                         -0.2285110              -6.2181
        38                         -0.2102615              -5.7215
        39                         -0.1705393              -4.6406
        40                         -0.1134418              -3.0869
        41                         -0.0901879              -2.4541
        42                          0.0236430               0.6434
        43                          0.0341351               0.9289
        44                          0.0992641               2.7011
        45                          0.1141841               3.1071
        46                          0.1265022               3.4423
       ...                                ...                  ...
        66                          0.7393377              20.1184
      -------------------------------------------------------------
                  HL-Gap            0.0821204 Eh            2.2346 eV

     #   Z          covCN         q      C6AA      α(0)
     1   1 H        0.859     0.227     0.980     1.551
     2   7 N        2.702    -0.105    23.313     7.171
     3   6 C        2.909     0.067    26.500     8.441
     4   6 C        2.921    -0.048    29.200     8.861
     5   6 C        2.832     0.040    27.099     8.531
     6   6 C        2.926    -0.051    29.260     8.871
     7   6 C        3.088    -0.067    29.562     8.912
     8   7 N        2.775    -0.146    24.154     7.299
     9   6 C        2.981    -0.071    29.774     8.951
    10   6 C        2.872     0.257    22.690     7.808
    11   6 C        2.991     0.003    27.943     8.671
    12   6 C        2.919    -0.026    28.662     8.779
    13   6 C        2.920    -0.028    28.704     8.786
    14   6 C        2.919    -0.037    28.919     8.819
    15   1 H        0.926     0.041     2.434     2.440
    16   1 H        0.926     0.035     2.517     2.481
    17   1 H        0.860     0.170     1.275     1.769
    18   8 O        0.857    -0.485    23.453     6.493
    19   1 H        0.926     0.037     2.491     2.468
    20   1 H        0.926     0.035     2.518     2.481
    21   1 H        0.926     0.033     2.540     2.492
    22   1 H        0.926     0.036     2.504     2.474
    23   1 H        0.926     0.034     2.532     2.488
    24   1 H        0.925     0.051     2.303     2.373

Wiberg/Mayer (AO) data.
largest (>0.10) Wiberg bond orders for each atom

     #   Z sym  total        # sym  WBO       # sym  WBO       # sym  WBO
 ---------------------------------------------------------------------------
     1   1 H    0.948 --     2 N    0.877
     2   7 N    3.570 --     5 C    1.295     3 C    1.103     1 H    0.877
     3   6 C    3.964 --     4 C    1.358     6 C    1.351     2 N    1.103
     4   6 C    3.984 --    13 C    1.455     3 C    1.358    16 H    0.966
                            12 C    0.104
     5   6 C    3.972 --     7 C    1.498     2 N    1.295    24 H    0.955
     6   6 C    3.983 --    12 C    1.465     3 C    1.351    15 H    0.967
                            13 C    0.105
     7   6 C    3.962 --     5 C    1.498     9 C    1.157    10 C    1.067
     8   7 N    3.513 --    10 C    1.180    11 C    1.126    17 H    0.942
                            18 O    0.143
     9   6 C    3.977 --    11 C    1.696     7 C    1.157    21 H    0.972
    10   6 C    3.949 --    18 O    1.572     8 N    1.180     7 C    1.067
    11   6 C    3.935 --     9 C    1.696     8 N    1.126    22 H    0.970
    12   6 C    3.991 --     6 C    1.465    14 C    1.424    19 H    0.971
                             4 C    0.104
    13   6 C    3.992 --     4 C    1.455    14 C    1.433    20 H    0.971
                             6 C    0.105
    14   6 C    3.968 --    13 C    1.433    12 C    1.424    23 H    0.972
    15   1 H    0.998 --     6 C    0.967
    16   1 H    0.999 --     4 C    0.966
    17   1 H    0.971 --     8 N    0.942
    18   8 O    1.972 --    10 C    1.572     8 N    0.143
    19   1 H    0.998 --    12 C    0.971
    20   1 H    0.998 --    13 C    0.971
    21   1 H    0.999 --     9 C    0.972
    22   1 H    0.998 --    11 C    0.970
    23   1 H    0.999 --    14 C    0.972
    24   1 H    0.997 --     5 C    0.955
 ---------------------------------------------------------------------------

molecular dipole:
                 x           y           z       tot (Debye)
 q only:        0.612       0.429       0.375
   full:        0.349       0.615       0.349       2.005

           -------------------------------------------------
          | TOTAL ENERGY              -38.561545727701 Eh   |
          | GRADIENT NORM               0.000334514361 Eh/α |
          | HOMO-LUMO GAP               2.234609375157 eV   |
           -------------------------------------------------

 * finished run on 2023/11/18 at 08:34:49.914
