   * xtb version 6.5.0 (97a52f5) compiled by 'conda@d2599ee0d4f4' on 2022-05-15
          program call               : /home/liuchw/anaconda3/envs/xtbenv/bin/xtb --gfn 2 --chrg 0 --uhf 0 1_16_Index_0-opt-2-3-321_preQMOPTprefit_xyzformat.xyz --opt --input xtb-opt-2-3-321_constr.txt

   ID    Z sym.   atoms
    1    1 H      1, 15-17, 19-24
    2    7 N      2, 8
    3    6 C      3-7, 9-14
    4    8 O      18
constraining angle 1 2 3 4 to  320.9686666°, actual value:  -39.0313334°
constraining angle 5 2 3 4 to  141.9747860°, actual value:  141.9747860°
constraining angle 1 2 5 24 to  183.9541380°, actual value: -176.0458620°
constraining angle 3 2 5 24 to    2.9965864°, actual value:    2.9965864°
constraining angle 2 5 7 9 to  181.9980553°, actual value: -178.0019447°

          :  Hamiltonian                  GFN2-xTB          :
 * total energy  :   -38.5498149 Eh     change       -0.8504770E-09 Eh
 * total energy  :   -38.5575037 Eh     change       -0.7688768E-02 Eh
 * total energy  :   -38.5586722 Eh     change       -0.1168529E-02 Eh
 * total energy  :   -38.5581619 Eh     change        0.5103046E-03 Eh
 * total energy  :   -38.5590005 Eh     change       -0.8385472E-03 Eh
 * total energy  :   -38.5590226 Eh     change       -0.2208028E-04 Eh
 * total energy  :   -38.5590514 Eh     change       -0.2883121E-04 Eh
 * total energy  :   -38.5590600 Eh     change       -0.8651075E-05 Eh
 * total energy  :   -38.5590649 Eh     change       -0.4857546E-05 Eh
 * total energy  :   -38.5590672 Eh     change       -0.2334204E-05 Eh
   *** GEOMETRY OPTIMIZATION CONVERGED AFTER 10 ITERATIONS ***

 final structure:
================
24
 xtb: 6.5.0 (97a52f5)
H            0.47114441066898        0.98356689145843       -0.45963599760972
N            0.30045849448480        0.06296846669927       -0.03986446444974
C            1.36429331916985       -0.81313916054249        0.14586728480670
C            2.35169039041708       -0.89469839264081       -0.83580890169490
C           -0.97910060198615       -0.14859869322033        0.29319790618875
C            1.43416884507099       -1.65260924618249        1.25609076438525
C           -1.93136420468506        0.79854223751710        0.05051784925959
N           -2.80437272107965        2.76217366500475       -0.62432772575052
C           -3.33847006831287        0.81735589818193        0.34662587771535
C           -1.62039287182840        2.08146563727177       -0.57546122598483
C           -3.82355877421625        2.00276428366313       -0.07054473091544
C            2.48572365663838       -2.54032881398681        1.38728609751381
C            3.40085722439518       -1.78090003419464       -0.69277175196565
C            3.47068828790410       -2.60911191306078        0.41650630621040
H            0.67776997182880       -1.59152110593129        2.02426087601868
H            2.28976736744873       -0.24737984948185       -1.69790983850722
H           -2.91178285184826        3.68858534111838       -1.00170153646933
O           -0.53308730471737        2.49644146837311       -0.97687627569059
H            2.53801412290797       -3.17916756486811        2.25649064773217
H            4.16329176400610       -1.83490387437144       -1.45556152132740
H           -3.88570015783200        0.02225763617628        0.81237019523650
H           -4.82204605058784        2.39258956903181       -0.02259928521294
H            4.29004331967659       -3.30335344359128        0.52419819385119
H           -1.22228155752332       -1.07402003242346        0.80093325665986

          :  Hamiltonian                  GFN2-xTB          :
         :: total energy             -38.559067235786 Eh    ::
         :: gradient norm              0.000510251450 Eh/a0 ::
         :: HOMO-LUMO gap              2.280715536581 eV    ::
         :: SCC energy               -39.189897981445 Eh    ::
         :: -> dispersion             -0.022205323869 Eh    ::
         :: repulsion energy           0.630986266625 Eh    ::

    * Orbital Energies and Occupations

         #    Occupation            Energy/Eh            Energy/eV
      -------------------------------------------------------------
         1        2.0000           -0.6827414             -18.5783
       ...           ...                  ...                  ...
        23        2.0000           -0.4842982             -13.1784
        24        2.0000           -0.4787300             -13.0269
        25        2.0000           -0.4742210             -12.9042
        26        2.0000           -0.4691048             -12.7650
        27        2.0000           -0.4603071             -12.5256
        28        2.0000           -0.4550460             -12.3824
        29        2.0000           -0.4403631             -11.9829
        30        2.0000           -0.4314866             -11.7413
        31        2.0000           -0.4201719             -11.4335
        32        2.0000           -0.4130288             -11.2391
        33        2.0000           -0.3901186             -10.6157
        34        2.0000           -0.3809073             -10.3650
        35        2.0000           -0.3487104              -9.4889 (HOMO)
        36                         -0.2648957              -7.2082 (LUMO)
        37                         -0.2305865              -6.2746
        38                         -0.2165109              -5.8916
        39                         -0.1688992              -4.5960
        40                         -0.1116843              -3.0391
        41                         -0.0950631              -2.5868
        42                          0.0217879               0.5929
        43                          0.0351709               0.9570
        44                          0.1046550               2.8478
        45                          0.1186778               3.2294
        46                          0.1277439               3.4761
       ...                                ...                  ...
        66                          0.7404728              20.1493
      -------------------------------------------------------------
                  HL-Gap            0.0838148 Eh            2.2807 eV

     #   Z          covCN         q      C6AA      α(0)
     1   1 H        0.859     0.227     0.978     1.549
     2   7 N        2.701    -0.112    23.439     7.190
     3   6 C        2.910     0.067    26.494     8.440
     4   6 C        2.924    -0.048    29.188     8.860
     5   6 C        2.833     0.042    27.059     8.524
     6   6 C        2.922    -0.046    29.154     8.854
     7   6 C        3.089    -0.069    29.612     8.920
     8   7 N        2.775    -0.146    24.160     7.300
     9   6 C        2.981    -0.071    29.770     8.950
    10   6 C        2.873     0.256    22.701     7.810
    11   6 C        2.991     0.002    27.964     8.674
    12   6 C        2.919    -0.028    28.698     8.785
    13   6 C        2.919    -0.026    28.662     8.779
    14   6 C        2.919    -0.035    28.878     8.812
    15   1 H        0.926     0.037     2.495     2.470
    16   1 H        0.926     0.043     2.409     2.427
    17   1 H        0.860     0.169     1.279     1.771
    18   8 O        0.857    -0.487    23.508     6.501
    19   1 H        0.926     0.036     2.502     2.474
    20   1 H        0.926     0.038     2.478     2.461
    21   1 H        0.926     0.032     2.552     2.498
    22   1 H        0.926     0.035     2.516     2.481
    23   1 H        0.926     0.035     2.515     2.480
    24   1 H        0.925     0.050     2.320     2.382

Wiberg/Mayer (AO) data.
largest (>0.10) Wiberg bond orders for each atom

     #   Z sym  total        # sym  WBO       # sym  WBO       # sym  WBO
 ---------------------------------------------------------------------------
     1   1 H    0.948 --     2 N    0.874
     2   7 N    3.556 --     5 C    1.304     3 C    1.080     1 H    0.874
     3   6 C    3.965 --     6 C    1.370     4 C    1.362     2 N    1.080
     4   6 C    3.984 --    13 C    1.461     3 C    1.362    16 H    0.968
                            12 C    0.107
     5   6 C    3.971 --     7 C    1.493     2 N    1.304    24 H    0.956
     6   6 C    3.985 --    12 C    1.451     3 C    1.370    15 H    0.967
                            13 C    0.105
     7   6 C    3.963 --     5 C    1.493     9 C    1.157    10 C    1.071
     8   7 N    3.513 --    10 C    1.181    11 C    1.126    17 H    0.943
                            18 O    0.143
     9   6 C    3.977 --    11 C    1.696     7 C    1.157    21 H    0.972
    10   6 C    3.949 --    18 O    1.568     8 N    1.181     7 C    1.071
    11   6 C    3.938 --     9 C    1.696     8 N    1.126    22 H    0.970
    12   6 C    3.992 --     6 C    1.451    14 C    1.435    19 H    0.971
                             4 C    0.107
    13   6 C    3.991 --     4 C    1.461    14 C    1.427    20 H    0.970
                             6 C    0.105
    14   6 C    3.973 --    12 C    1.435    13 C    1.427    23 H    0.971
    15   1 H    0.999 --     6 C    0.967
    16   1 H    0.998 --     4 C    0.968
    17   1 H    0.971 --     8 N    0.943
    18   8 O    1.972 --    10 C    1.568     8 N    0.143
    19   1 H    0.998 --    12 C    0.971
    20   1 H    0.998 --    13 C    0.970
    21   1 H    0.999 --     9 C    0.972
    22   1 H    0.998 --    11 C    0.970
    23   1 H    0.999 --    14 C    0.971
    24   1 H    0.997 --     5 C    0.956
 ---------------------------------------------------------------------------

molecular dipole:
                 x           y           z       tot (Debye)
 q only:       -0.083      -0.804       0.382
   full:       -0.344      -0.616       0.380       2.036

           -------------------------------------------------
          | TOTAL ENERGY              -38.559067235786 Eh   |
          | GRADIENT NORM               0.000510251450 Eh/α |
          | HOMO-LUMO GAP               2.280715536581 eV   |
           -------------------------------------------------

 * finished run on 2023/11/18 at 08:35:29.034
