                               Psi4 1.6 release

  ==> Input File <==

--------------------------------------------------------------------------
molecule {
0 1
 H   -0.495323   -0.515812   -1.038395
 N    0.035304   -0.341302   -0.178400
 C    1.193025   -1.068515    0.074779
 C    2.316969   -0.476596    0.648521
 C   -0.486425    0.619310    0.595709
 C    1.259076   -2.398182   -0.340511
 C   -1.638887    1.258676    0.242597
 N   -3.446002    1.784505   -0.994618
 C   -2.355303    2.328625    0.882869
 C   -2.373553    0.937253   -0.978774
 C   -3.426161    2.612976    0.116896
 C    2.407765   -3.134874   -0.128794
 C    3.460040   -1.223896    0.861568
 C    3.509138   -2.554262    0.480217
 H    0.399546   -2.842744   -0.819782
 H    2.291267    0.566116    0.927911
 H   -4.142499    1.806275   -1.720262
 O   -2.107106    0.094618   -1.835368
 H    2.446436   -4.167444   -0.442371
 H    4.323830   -0.758821    1.313240
 H   -2.075233    2.799550    1.803905
 H   -4.196023    3.347143    0.256686
 H    4.405298   -3.132584    0.645695
 H    0.060573    0.898963    1.487965
}
memory 20GB
set_num_threads(5)
psi4_io.set_default_path("/scratch/liuchw/Psi4-1_16_Index_0-farH_in17")
set freeze_core True
E, wfn = energy('wb97x-d/6-311+G*',return_wfn=True)
oeprop(wfn,"WIBERG_LOWDIN_INDICES")
clean()
--------------------------------------------------------------------------

    Molecular point group: c1

    Geometry (in Angstrom), charge = 0, multiplicity = 1:

       Center              X                  Y                   Z               Mass
    ------------   -----------------  -----------------  -----------------  -----------------
         H           -0.323173062366    -0.421840577172    -0.963760147594     1.007825032230
         N            0.207453937634    -0.247330577172    -0.103765147594    14.003074004430
         C            1.365174937634    -0.974543577172     0.149413852406    12.000000000000
         C            2.489118937634    -0.382624577172     0.723155852406    12.000000000000
         C           -0.314275062366     0.713281422828     0.670343852406    12.000000000000
         C            1.431225937634    -2.304210577172    -0.265876147594    12.000000000000
         C           -1.466737062366     1.352647422828     0.317231852406    12.000000000000
         N           -3.273852062366     1.878476422828    -0.919983147594    14.003074004430
         C           -2.183153062366     2.422596422828     0.957503852406    12.000000000000
         C           -2.201403062366     1.031224422828    -0.904139147594    12.000000000000
         C           -3.254011062366     2.706947422828     0.191530852406    12.000000000000
         C            2.579914937634    -3.040902577172    -0.054159147594    12.000000000000
         C            3.632189937634    -1.129924577172     0.936202852406    12.000000000000
         C            3.681287937634    -2.460290577172     0.554851852406    12.000000000000
         H            0.571695937634    -2.748772577172    -0.745147147594     1.007825032230
         H            2.463416937634     0.660087422828     1.002545852406     1.007825032230
         H           -3.970349062366     1.900246422828    -1.645627147594     1.007825032230
         O           -1.934956062366     0.188589422828    -1.760733147594    15.994914619570
         H            2.618585937634    -4.073472577172    -0.367736147594     1.007825032230
         H            4.495979937634    -0.664849577172     1.387874852406     1.007825032230
         H           -1.903083062366     2.893521422828     1.878539852406     1.007825032230
         H           -4.023873062366     3.441114422828     0.331320852406     1.007825032230
         H            4.577447937634    -3.038612577172     0.720329852406     1.007825032230
         H            0.232722937634     0.992934422828     1.562599852406     1.007825032230

  Charge       = 0
  Multiplicity = 1
  Basis Set: 6-311+G*
    Blend: 6-311+G*
  Basis Set: (6-311+G* AUX)
    Blend: HEAVY-AUG-CC-PVTZ-JKFIT

    Orbital Energies [Eh]
    ---------------------

    Doubly Occupied:

       1A    -19.208750     2A    -14.474973     3A    -14.465358
       4A    -10.377176     5A    -10.354101     6A    -10.342416
       7A    -10.315233     8A    -10.298290     9A    -10.297631
      10A    -10.297224    11A    -10.295399    12A    -10.291798
      13A    -10.281085    14A    -10.277297    15A     -1.141450
      16A     -1.080978    17A     -1.060742    18A     -0.971470
      19A     -0.907858    20A     -0.865040    21A     -0.861186
      22A     -0.818032    23A     -0.772229    24A     -0.728804
      25A     -0.713724    26A     -0.684835    27A     -0.678759
      28A     -0.644164    29A     -0.604237    30A     -0.589997
      31A     -0.585601    32A     -0.554010    33A     -0.542976
      34A     -0.532233    35A     -0.523647    36A     -0.518578
      37A     -0.513705    38A     -0.500314    39A     -0.491502
      40A     -0.484068    41A     -0.454893    42A     -0.452655
      43A     -0.436900    44A     -0.415276    45A     -0.363821
      46A     -0.344844    47A     -0.340605    48A     -0.316222
      49A     -0.258885

  @DF-RKS Final Energy:  -609.84855733553616

   => Energetics <=

    Nuclear Repulsion Energy =            795.8860124137432877
    One-Electron Energy =               -2404.4863957554089211
    Two-Electron Energy =                1058.1001270525277960
    DFT Exchange-Correlation Energy =     -59.3355556774319552
    Empirical Dispersion Energy =          -0.0127453689662513
    VV10 Nonlocal Energy =                  0.0000000000000000
    Total Energy =                       -609.8485573355362703
 Dipole X            :         -4.1590200            4.4426250            0.2836050
 Dipole Y            :          1.3661841           -0.9972152            0.3689689
 Dipole Z            :         -2.2370843            2.9577985            0.7207141
 Magnitude           :                                                    0.8579037
*** Psi4 exiting successfully. Buy a developer a beer!
