   * xtb version 6.5.0 (97a52f5) compiled by 'conda@d2599ee0d4f4' on 2022-05-15
          program call               : /home/liuchw/anaconda3/envs/xtbenv/bin/xtb --gfn 2 --chrg 0 --uhf 0 1_16_Index_0-opt-2-3-231_preQMOPTprefit_xyzformat.xyz --opt --input xtb-opt-2-3-231_constr.txt

   ID    Z sym.   atoms
    1    1 H      1, 15-17, 19-24
    2    7 N      2, 8
    3    6 C      3-7, 9-14
    4    8 O      18
constraining angle 1 2 3 4 to  231.0037354°, actual value: -128.9962646°
constraining angle 5 2 3 4 to   52.0319045°, actual value:   52.0319045°
constraining angle 1 2 5 24 to  183.9717971°, actual value: -176.0282029°
constraining angle 3 2 5 24 to    2.9933404°, actual value:    2.9933404°
constraining angle 2 5 7 9 to  181.9951005°, actual value: -178.0048995°

          :  Hamiltonian                  GFN2-xTB          :
 * total energy  :   -38.5479782 Eh     change       -0.9712764E-09 Eh
 * total energy  :   -38.5554711 Eh     change       -0.7492911E-02 Eh
 * total energy  :   -38.5565613 Eh     change       -0.1090258E-02 Eh
 * total energy  :   -38.5564216 Eh     change        0.1397354E-03 Eh
 * total energy  :   -38.5568801 Eh     change       -0.4584764E-03 Eh
 * total energy  :   -38.5569249 Eh     change       -0.4485633E-04 Eh
 * total energy  :   -38.5569542 Eh     change       -0.2928835E-04 Eh
 * total energy  :   -38.5569630 Eh     change       -0.8819540E-05 Eh
 * total energy  :   -38.5569686 Eh     change       -0.5563535E-05 Eh
 * total energy  :   -38.5569727 Eh     change       -0.4135834E-05 Eh
 * total energy  :   -38.5569751 Eh     change       -0.2332046E-05 Eh
   *** GEOMETRY OPTIMIZATION CONVERGED AFTER 11 ITERATIONS ***

 final structure:
================
24
 xtb: 6.5.0 (97a52f5)
H            0.39860376150391        1.01518184512613        0.60964029718195
N            0.27272697807734        0.06505601672489        0.24551933728456
C            1.31622100140144       -0.86071503611611        0.30453784346659
C            1.70271413515609       -1.56712754824170       -0.83172804227247
C           -0.94805160517813       -0.17642081119512       -0.24719586024009
C            2.05101363312494       -0.99699509307417        1.47991459401478
C           -1.90108782284964        0.79919816482191       -0.28217160807878
N           -2.83183068310904        2.82321417500554        0.04491094698026
C           -3.26980105159023        0.76626196718939       -0.72181260305588
C           -1.65332567548269        2.15092722725925        0.21132352995565
C           -3.78994951770869        1.99132406455541       -0.51418559822510
C            3.11583206785932       -1.87625692927970        1.53107703985245
C            2.76514251024886       -2.44941405460067       -0.76982417650211
C            3.47174449953576       -2.60959327779601        0.41048265563552
H            1.77328238997848       -0.41676301271157        2.34717843003000
H            1.15675308461543       -1.42855565966801       -1.75342301034610
H           -2.97576039269471        3.78718094219833        0.29413382051158
O           -0.61916031381229        2.61426432392456        0.69259813916502
H            3.67335569595691       -1.98820027550698        2.44905086239860
H            3.05389445900280       -3.00054687701039       -1.65248260692604
H           -3.76826089853323       -0.08514443215696       -1.14037616220419
H           -4.77646252740212        2.36258518064361       -0.71472243048619
H            4.30414930116113       -3.29531011511183        0.45403787827453
H           -1.15598603926169       -1.18517080497983       -0.58520330641424

          :  Hamiltonian                  GFN2-xTB          :
         :: total energy             -38.556975061065 Eh    ::
         :: gradient norm              0.000682781334 Eh/a0 ::
         :: HOMO-LUMO gap              2.336817872421 eV    ::
         :: SCC energy               -39.187735420047 Eh    ::
         :: -> dispersion             -0.022168955365 Eh    ::
         :: repulsion energy           0.630903307597 Eh    ::

    * Orbital Energies and Occupations

         #    Occupation            Energy/Eh            Energy/eV
      -------------------------------------------------------------
         1        2.0000           -0.6810251             -18.5316
       ...           ...                  ...                  ...
        23        2.0000           -0.4847222             -13.1900
        24        2.0000           -0.4780577             -13.0086
        25        2.0000           -0.4745489             -12.9131
        26        2.0000           -0.4677995             -12.7295
        27        2.0000           -0.4595547             -12.5051
        28        2.0000           -0.4534624             -12.3393
        29        2.0000           -0.4411006             -12.0030
        30        2.0000           -0.4330780             -11.7847
        31        2.0000           -0.4181364             -11.3781
        32        2.0000           -0.4144009             -11.2764
        33        2.0000           -0.3913586             -10.6494
        34        2.0000           -0.3792391             -10.3196
        35        2.0000           -0.3475560              -9.4575 (HOMO)
        36                         -0.2616795              -7.1207 (LUMO)
        37                         -0.2322740              -6.3205
        38                         -0.2224493              -6.0532
        39                         -0.1674838              -4.5575
        40                         -0.1099221              -2.9911
        41                         -0.0989390              -2.6923
        42                          0.0196333               0.5342
        43                          0.0360342               0.9805
        44                          0.1104450               3.0054
        45                          0.1163414               3.1658
        46                          0.1311695               3.5693
       ...                                ...                  ...
        66                          0.7424961              20.2043
      -------------------------------------------------------------
                  HL-Gap            0.0858765 Eh            2.3368 eV

     #   Z          covCN         q      C6AA      α(0)
     1   1 H        0.859     0.227     0.980     1.550
     2   7 N        2.700    -0.116    23.531     7.204
     3   6 C        2.913     0.067    26.492     8.440
     4   6 C        2.922    -0.044    29.095     8.845
     5   6 C        2.835     0.043    27.017     8.518
     6   6 C        2.923    -0.046    29.149     8.854
     7   6 C        3.090    -0.071    29.650     8.925
     8   7 N        2.775    -0.147    24.172     7.302
     9   6 C        2.981    -0.071    29.770     8.950
    10   6 C        2.873     0.256    22.705     7.811
    11   6 C        2.992     0.002    27.978     8.677
    12   6 C        2.920    -0.027    28.665     8.780
    13   6 C        2.919    -0.028    28.692     8.784
    14   6 C        2.919    -0.034    28.844     8.807
    15   1 H        0.926     0.043     2.411     2.428
    16   1 H        0.926     0.039     2.464     2.454
    17   1 H        0.860     0.168     1.282     1.774
    18   8 O        0.857    -0.488    23.532     6.504
    19   1 H        0.926     0.039     2.468     2.457
    20   1 H        0.926     0.037     2.484     2.465
    21   1 H        0.926     0.032     2.563     2.503
    22   1 H        0.926     0.034     2.527     2.486
    23   1 H        0.926     0.036     2.500     2.472
    24   1 H        0.925     0.048     2.341     2.393

Wiberg/Mayer (AO) data.
largest (>0.10) Wiberg bond orders for each atom

     #   Z sym  total        # sym  WBO       # sym  WBO       # sym  WBO
 ---------------------------------------------------------------------------
     1   1 H    0.948 --     2 N    0.873
     2   7 N    3.544 --     5 C    1.310     3 C    1.060     1 H    0.873
     3   6 C    3.965 --     4 C    1.377     6 C    1.374     2 N    1.060
                            14 C    0.100
     4   6 C    3.986 --    13 C    1.450     3 C    1.377    16 H    0.968
                            12 C    0.107
     5   6 C    3.971 --     7 C    1.492     2 N    1.310    24 H    0.958
     6   6 C    3.986 --    12 C    1.455     3 C    1.374    15 H    0.969
                            13 C    0.108
     7   6 C    3.964 --     5 C    1.492     9 C    1.156    10 C    1.073
     8   7 N    3.512 --    10 C    1.180    11 C    1.125    17 H    0.943
                            18 O    0.143
     9   6 C    3.978 --    11 C    1.697     7 C    1.156    21 H    0.972
    10   6 C    3.950 --    18 O    1.566     8 N    1.180     7 C    1.073
    11   6 C    3.941 --     9 C    1.697     8 N    1.125    22 H    0.970
    12   6 C    3.991 --     6 C    1.455    14 C    1.431    19 H    0.970
                             4 C    0.107
    13   6 C    3.992 --     4 C    1.450    14 C    1.435    20 H    0.970
                             6 C    0.108
    14   6 C    3.979 --    13 C    1.435    12 C    1.431    23 H    0.971
                             3 C    0.100
    15   1 H    0.998 --     6 C    0.969
    16   1 H    0.998 --     4 C    0.968
    17   1 H    0.971 --     8 N    0.943
    18   8 O    1.971 --    10 C    1.566     8 N    0.143
    19   1 H    0.998 --    12 C    0.970
    20   1 H    0.998 --    13 C    0.970
    21   1 H    0.999 --     9 C    0.972
    22   1 H    0.998 --    11 C    0.970
    23   1 H    0.999 --    14 C    0.971
    24   1 H    0.997 --     5 C    0.958
 ---------------------------------------------------------------------------

molecular dipole:
                 x           y           z       tot (Debye)
 q only:        0.015      -0.932      -0.234
   full:       -0.247      -0.750      -0.261       2.115

           -------------------------------------------------
          | TOTAL ENERGY              -38.556975061065 Eh   |
          | GRADIENT NORM               0.000682781334 Eh/α |
          | HOMO-LUMO GAP               2.336817872421 eV   |
           -------------------------------------------------

 * finished run on 2023/11/18 at 08:36:28.317
