                               Psi4 1.6 release

  ==> Input File <==

--------------------------------------------------------------------------
molecule {
0 1
 H    0.373366    0.757341   -0.695699
 N    0.237715   -0.041039   -0.064977
 C    1.307923   -0.892814    0.131710
 C    2.432096   -0.724438   -0.681116
 C   -0.989416   -0.087618    0.472950
 C    1.311344   -1.911157    1.085581
 C   -1.930136    0.845166    0.145233
 N   -2.830982    2.660449   -0.839822
 C   -3.278334    1.018580    0.614421
 C   -1.673374    1.935262   -0.795105
 C   -3.782389    2.108288    0.003723
 C    2.414092   -2.733739    1.216933
 C    3.527824   -1.551056   -0.540723
 C    3.524571   -2.561866    0.408038
 H    0.460412   -2.060887    1.731586
 H    2.431014    0.064102   -1.419511
 H   -2.964852    3.482713   -1.403865
 O   -0.643727    2.181974   -1.421776
 H    2.404504   -3.516701    1.960879
 H    4.389381   -1.409241   -1.176041
 H   -3.777136    0.383695    1.319118
 H   -4.752221    2.558745    0.091825
 H    4.381038   -3.209353    0.516442
 H   -1.206960   -0.857429    1.201476
}
memory 20GB
set_num_threads(5)
psi4_io.set_default_path("/scratch/liuchw/Psi4-1_16_Index_0-farH_in17")
set freeze_core True
E, wfn = energy('wb97x-d/6-311+G*',return_wfn=True)
oeprop(wfn,"WIBERG_LOWDIN_INDICES")
clean()
--------------------------------------------------------------------------

    Molecular point group: c1

    Geometry (in Angstrom), charge = 0, multiplicity = 1:

       Center              X                  Y                   Z               Mass
    ------------   -----------------  -----------------  -----------------  -----------------
         H            0.429726407682     0.687054998361    -0.649866041530     1.007825032230
         N            0.294075407682    -0.111325001639    -0.019144041530    14.003074004430
         C            1.364283407682    -0.963100001639     0.177542958470    12.000000000000
         C            2.488456407682    -0.794724001639    -0.635283041530    12.000000000000
         C           -0.933055592318    -0.157904001639     0.518782958470    12.000000000000
         C            1.367704407682    -1.981443001639     1.131413958470    12.000000000000
         C           -1.873775592318     0.774879998361     0.191065958470    12.000000000000
         N           -2.774621592318     2.590162998361    -0.793989041530    14.003074004430
         C           -3.221973592318     0.948293998361     0.660253958470    12.000000000000
         C           -1.617013592318     1.864975998361    -0.749272041530    12.000000000000
         C           -3.726028592318     2.038001998361     0.049555958470    12.000000000000
         C            2.470452407682    -2.804025001639     1.262765958470    12.000000000000
         C            3.584184407682    -1.621342001639    -0.494890041530    12.000000000000
         C            3.580931407682    -2.632152001639     0.453870958470    12.000000000000
         H            0.516772407682    -2.131173001639     1.777418958470     1.007825032230
         H            2.487374407682    -0.006184001639    -1.373678041530     1.007825032230
         H           -2.908491592318     3.412426998361    -1.358032041530     1.007825032230
         O           -0.587366592318     2.111687998361    -1.375943041530    15.994914619570
         H            2.460864407682    -3.586987001639     2.006711958470     1.007825032230
         H            4.445741407682    -1.479527001639    -1.130208041530     1.007825032230
         H           -3.720775592318     0.313408998361     1.364950958470     1.007825032230
         H           -4.695860592318     2.488458998361     0.137657958470     1.007825032230
         H            4.437398407682    -3.279639001639     0.562274958470     1.007825032230
         H           -1.150599592318    -0.927715001639     1.247308958470     1.007825032230

  Charge       = 0
  Multiplicity = 1
  Basis Set: 6-311+G*
    Blend: 6-311+G*
  Basis Set: (6-311+G* AUX)
    Blend: HEAVY-AUG-CC-PVTZ-JKFIT

    Orbital Energies [Eh]
    ---------------------

    Doubly Occupied:

       1A    -19.212039     2A    -14.478986     3A    -14.467950
       4A    -10.380580     5A    -10.356466     6A    -10.344074
       7A    -10.318284     8A    -10.296443     9A    -10.295397
      10A    -10.295067    11A    -10.292893    12A    -10.287335
      13A    -10.285325    14A    -10.279670    15A     -1.144727
      16A     -1.084239    17A     -1.063706    18A     -0.969769
      19A     -0.910679    20A     -0.864921    21A     -0.860766
      22A     -0.819285    23A     -0.775768    24A     -0.730506
      25A     -0.714262    26A     -0.686404    27A     -0.675385
      28A     -0.645591    29A     -0.605803    30A     -0.593113
      31A     -0.586235    32A     -0.544426    33A     -0.541053
      34A     -0.536317    35A     -0.521366    36A     -0.520186
      37A     -0.514627    38A     -0.507890    39A     -0.501478
      40A     -0.486324    41A     -0.453410    42A     -0.449653
      43A     -0.437250    44A     -0.418144    45A     -0.368689
      46A     -0.344117    47A     -0.342723    48A     -0.312697
      49A     -0.258732

  @DF-RKS Final Energy:  -609.84942869298095

   => Energetics <=

    Nuclear Repulsion Energy =            795.9859881862330440
    One-Electron Energy =               -2404.5881669649970718
    Two-Electron Energy =                1058.1019765085195559
    DFT Exchange-Correlation Energy =     -59.3365249003119999
    Empirical Dispersion Energy =          -0.0127015224244383
    VV10 Nonlocal Energy =                  0.0000000000000000
    Total Energy =                       -609.8494286929809505
 Dipole X            :         -2.6661820            2.1625779           -0.5036041
 Dipole Y            :          3.8282179           -4.2249234           -0.3967055
 Dipole Z            :         -1.8521667            2.4186773            0.5665107
 Magnitude           :                                                    0.8555271
*** Psi4 exiting successfully. Buy a developer a beer!
