                               Psi4 1.6 release

  ==> Input File <==

--------------------------------------------------------------------------
molecule {
0 1
 H   -0.316657   -0.256945   -1.196304
 N    0.076514   -0.279256   -0.249032
 C    1.224467   -1.039114    0.037437
 C    2.426097   -0.409758    0.344711
 C   -0.582559    0.475510    0.635424
 C    1.181149   -2.424804   -0.076745
 C   -1.698414    1.173852    0.273455
 N   -3.322283    1.958765   -1.072876
 C   -2.540853    2.067145    1.021693
 C   -2.232233    1.134099   -1.083241
 C   -3.498440    2.513412    0.185881
 C    2.319318   -3.172707    0.162472
 C    3.559380   -1.164790    0.587436
 C    3.507951   -2.545741    0.498917
 H    0.251712   -2.903672   -0.346044
 H    2.458101    0.668234    0.405752
 H   -3.904542    2.140394   -1.872940
 O   -1.809025    0.508165   -2.056627
 H    2.279320   -4.248932    0.083744
 H    4.488504   -0.672217    0.832943
 H   -2.417467    2.317331    2.056557
 H   -4.308691    3.192847    0.367970
 H    4.394913   -3.132521    0.684488
 H   -0.170507    0.539683    1.636212
}
memory 20GB
set_num_threads(5)
psi4_io.set_default_path("/scratch/liuchw/Psi4-1_16_Index_0-farH_in17")
set freeze_core True
E, wfn = energy('wb97x-d/6-311+G*',return_wfn=True)
oeprop(wfn,"WIBERG_LOWDIN_INDICES")
clean()
--------------------------------------------------------------------------

    Molecular point group: c1

    Geometry (in Angstrom), charge = 0, multiplicity = 1:

       Center              X                  Y                   Z               Mass
    ------------   -----------------  -----------------  -----------------  -----------------
         H           -0.168229181866    -0.195451653920    -1.101269599901     1.007825032230
         N            0.224941818134    -0.217762653920    -0.153997599901    14.003074004430
         C            1.372894818134    -0.977620653920     0.132471400099    12.000000000000
         C            2.574524818134    -0.348264653920     0.439745400099    12.000000000000
         C           -0.434131181866     0.537003346080     0.730458400099    12.000000000000
         C            1.329576818134    -2.363310653920     0.018289400099    12.000000000000
         C           -1.549986181866     1.235345346080     0.368489400099    12.000000000000
         N           -3.173855181866     2.020258346080    -0.977841599901    14.003074004430
         C           -2.392425181866     2.128638346080     1.116727400099    12.000000000000
         C           -2.083805181866     1.195592346080    -0.988206599901    12.000000000000
         C           -3.350012181866     2.574905346080     0.280915400099    12.000000000000
         C            2.467745818134    -3.111213653920     0.257506400099    12.000000000000
         C            3.707807818134    -1.103296653920     0.682470400099    12.000000000000
         C            3.656378818134    -2.484247653920     0.593951400099    12.000000000000
         H            0.400139818134    -2.842178653920    -0.251009599901     1.007825032230
         H            2.606528818134     0.729727346080     0.500786400099     1.007825032230
         H           -3.756114181866     2.201887346080    -1.777905599901     1.007825032230
         O           -1.660597181866     0.569658346080    -1.961592599901    15.994914619570
         H            2.427747818134    -4.187438653920     0.178778400099     1.007825032230
         H            4.636931818134    -0.610723653920     0.927977400099     1.007825032230
         H           -2.269039181866     2.378824346080     2.151591400099     1.007825032230
         H           -4.160263181866     3.254340346080     0.463004400099     1.007825032230
         H            4.543340818134    -3.071027653920     0.779522400099     1.007825032230
         H           -0.022079181866     0.601176346080     1.731246400099     1.007825032230

  Charge       = 0
  Multiplicity = 1
  Basis Set: 6-311+G*
    Blend: 6-311+G*
  Basis Set: (6-311+G* AUX)
    Blend: HEAVY-AUG-CC-PVTZ-JKFIT

    Orbital Energies [Eh]
    ---------------------

    Doubly Occupied:

       1A    -19.204191     2A    -14.468239     3A    -14.461712
       4A    -10.372356     5A    -10.351264     6A    -10.340087
       7A    -10.310889     8A    -10.300891     9A    -10.300231
      10A    -10.300125    11A    -10.299192    12A    -10.298150
      13A    -10.275205    14A    -10.273936    15A     -1.136732
      16A     -1.074642    17A     -1.056461    18A     -0.974101
      19A     -0.903980    20A     -0.866418    21A     -0.861233
      22A     -0.815498    23A     -0.766756    24A     -0.724277
      25A     -0.715003    26A     -0.683645    27A     -0.681091
      28A     -0.642469    29A     -0.602566    30A     -0.586780
      31A     -0.581197    32A     -0.565612    33A     -0.542331
      34A     -0.528257    35A     -0.525077    36A     -0.516032
      37A     -0.510745    38A     -0.496634    39A     -0.480792
      40A     -0.477680    41A     -0.458448    42A     -0.454994
      43A     -0.433673    44A     -0.411087    45A     -0.355053
      46A     -0.347145    47A     -0.335471    48A     -0.324838
      49A     -0.258149

  @DF-RKS Final Energy:  -609.84542193775656

   => Energetics <=

    Nuclear Repulsion Energy =            795.3389717957359153
    One-Electron Energy =               -2403.5468314174286206
    Two-Electron Energy =                1057.7081500104704901
    DFT Exchange-Correlation Energy =     -59.3330646233748027
    Empirical Dispersion Energy =          -0.0126477031594353
    VV10 Nonlocal Energy =                  0.0000000000000000
    Total Energy =                       -609.8454219377564414
 Dipole X            :         -3.5768730            3.9744855            0.3976125
 Dipole Y            :          1.6674299           -1.6345055            0.0329244
 Dipole Z            :         -2.4960075            3.3713039            0.8752964
 Magnitude           :                                                    0.9619374
*** Psi4 exiting successfully. Buy a developer a beer!
