   * xtb version 6.5.0 (97a52f5) compiled by 'conda@d2599ee0d4f4' on 2022-05-15
          program call               : /home/liuchw/anaconda3/envs/xtbenv/bin/xtb --gfn 2 --chrg 0 --uhf 0 7_11_Index_0-opt-2-3-343_preQMOPTprefit_xyzformat.xyz --opt --input xtb-opt-2-3-343_constr.txt

   ID    Z sym.   atoms
    1    7 N      1, 9
    2    6 C      2-6, 8, 10-14
    3    1 H      7, 15-17, 19-24
    4    8 O      18
constraining angle 1 2 3 4 to  342.7220486°, actual value:  -17.2779514°
constraining angle 24 1 2 3 to   27.9464939°, actual value:   27.9464939°
constraining angle 24 1 2 5 to  204.0578995°, actual value: -155.9421005°
constraining angle 7 1 2 3 to  172.9635558°, actual value:  172.9635558°
constraining angle 7 1 2 5 to  349.0749613°, actual value:  -10.9250387°
constraining angle 1 2 5 8 to  187.8986515°, actual value: -172.1013485°

          :  Hamiltonian                  GFN2-xTB          :
 * total energy  :   -38.5329288 Eh     change       -0.3526424E-08 Eh
 * total energy  :   -38.5436300 Eh     change       -0.1070124E-01 Eh
 * total energy  :   -38.5450639 Eh     change       -0.1433848E-02 Eh
 * total energy  :   -38.5446534 Eh     change        0.4104876E-03 Eh
 * total energy  :   -38.5452260 Eh     change       -0.5726321E-03 Eh
 * total energy  :   -38.5452483 Eh     change       -0.2230768E-04 Eh
 * total energy  :   -38.5452794 Eh     change       -0.3107414E-04 Eh
 * total energy  :   -38.5452879 Eh     change       -0.8514475E-05 Eh
 * total energy  :   -38.5452917 Eh     change       -0.3776631E-05 Eh
 * total energy  :   -38.5452929 Eh     change       -0.1277505E-05 Eh
   *** GEOMETRY OPTIMIZATION CONVERGED AFTER 10 ITERATIONS ***

 final structure:
================
24
 xtb: 6.5.0 (97a52f5)
N            1.51159442258874        0.15958252086247       -1.31979382384855
C            0.43781200234168        0.08227934404163       -0.50214051449763
C           -0.39359964023426       -1.13233772639255       -0.60924306221919
C           -0.30334755841758       -1.96236436394581       -1.73333729030078
C            0.26793815536677        1.11180842886333        0.41296270666133
C           -1.14414240901795       -1.61169729592743        0.46738697583976
H            1.99168946632169        1.06459805535154       -1.29260058728081
C           -0.62474181674964        1.33816323020904        1.52057709334742
N            0.75131060036419        3.09127593423947        1.41160160272928
C            1.15397096188574        2.28088387477395        0.38933286966856
C           -0.31138972831811        2.52299929875247        2.08276591746053
C           -1.84043287550210       -2.80295972325393        0.39004822590904
C           -1.00204149627232       -3.15110239457692       -1.81388653527252
C           -1.78409144305584       -3.57787970119578       -0.75485064644342
H           -1.15260027226896       -1.07398195570009        1.39671852817497
H            0.26754969196940       -1.66311365273218       -2.60060619465519
H            1.18913167397064        3.96808517594089        1.63813515510587
O            2.08258427481338        2.55363725995487       -0.37701244933586
H           -2.41706147800748       -3.13672518458920        1.24031284985118
H           -0.92461954981804       -3.75393513772195       -2.70699446442362
H           -2.32723327990262       -4.50889544434550       -0.81558099888451
H           -1.45411737160541        0.73626463845499        1.82792924771979
H           -0.75688181885997        3.01885686877515        2.92352752635493
H            1.50710750840777       -0.31602804983829       -2.20441213166042

          :  Hamiltonian                  GFN2-xTB          :
         :: total energy             -38.545292945867 Eh    ::
         :: gradient norm              0.000870147321 Eh/a0 ::
         :: HOMO-LUMO gap              1.911253014896 eV    ::
         :: SCC energy               -39.171441157527 Eh    ::
         :: -> dispersion             -0.023679712499 Eh    ::
         :: repulsion energy           0.626119565492 Eh    ::

    * Orbital Energies and Occupations

         #    Occupation            Energy/Eh            Energy/eV
      -------------------------------------------------------------
         1        2.0000           -0.6796338             -18.4938
       ...           ...                  ...                  ...
        23        2.0000           -0.4835329             -13.1576
        24        2.0000           -0.4748916             -12.9225
        25        2.0000           -0.4722385             -12.8503
        26        2.0000           -0.4655274             -12.6676
        27        2.0000           -0.4532299             -12.3330
        28        2.0000           -0.4524223             -12.3110
        29        2.0000           -0.4380361             -11.9196
        30        2.0000           -0.4278776             -11.6431
        31        2.0000           -0.4142369             -11.2720
        32        2.0000           -0.4126334             -11.2283
        33        2.0000           -0.3960577             -10.7773
        34        2.0000           -0.3772975             -10.2668
        35        2.0000           -0.3456196              -9.4048 (HOMO)
        36                         -0.2753824              -7.4935 (LUMO)
        37                         -0.2322121              -6.3188
        38                         -0.2103604              -5.7242
        39                         -0.1658636              -4.5134
        40                         -0.1195306              -3.2526
        41                         -0.0832298              -2.2648
        42                          0.0265333               0.7220
        43                          0.0374539               1.0192
        44                          0.0848281               2.3083
        45                          0.1078905               2.9358
        46                          0.1302065               3.5431
       ...                                ...                  ...
        66                          0.7318816              19.9155
      -------------------------------------------------------------
                  HL-Gap            0.0702373 Eh            1.9113 eV

     #   Z          covCN         q      C6AA      α(0)
     1   7 N        2.651    -0.253    26.591     7.659
     2   6 C        2.882     0.093    25.936     8.349
     3   6 C        2.969     0.006    27.895     8.663
     4   6 C        2.928    -0.031    28.763     8.795
     5   6 C        3.072    -0.073    29.749     8.943
     6   6 C        2.927    -0.032    28.795     8.800
     7   1 H        0.859     0.233     0.951     1.527
     8   6 C        2.992    -0.072    29.795     8.954
     9   7 N        2.772    -0.144    24.114     7.293
    10   6 C        2.887     0.254    22.746     7.819
    11   6 C        2.986    -0.000    28.029     8.685
    12   6 C        2.919    -0.028    28.701     8.785
    13   6 C        2.918    -0.029    28.721     8.788
    14   6 C        2.919    -0.027    28.671     8.781
    15   1 H        0.926     0.051     2.305     2.374
    16   1 H        0.926     0.030     2.581     2.512
    17   1 H        0.860     0.170     1.275     1.769
    18   8 O        0.857    -0.489    23.541     6.505
    19   1 H        0.926     0.036     2.508     2.477
    20   1 H        0.926     0.034     2.532     2.488
    21   1 H        0.926     0.035     2.513     2.479
    22   1 H        0.927     0.032     2.551     2.498
    23   1 H        0.926     0.033     2.543     2.494
    24   1 H        0.860     0.172     1.263     1.760

Wiberg/Mayer (AO) data.
largest (>0.10) Wiberg bond orders for each atom

     #   Z sym  total        # sym  WBO       # sym  WBO       # sym  WBO
 ---------------------------------------------------------------------------
     1   7 N    3.396 --     2 C    1.297    24 H    0.935     7 H    0.870
     2   6 C    3.968 --     5 C    1.415     1 N    1.297     3 C    1.062
     3   6 C    3.988 --     6 C    1.377     4 C    1.375     2 C    1.062
                            14 C    0.102
     4   6 C    3.985 --    13 C    1.460     3 C    1.375    16 H    0.958
                            12 C    0.106
     5   6 C    3.967 --     2 C    1.415     8 C    1.174    10 C    1.082
     6   6 C    3.984 --    12 C    1.457     3 C    1.377    15 H    0.958
                            13 C    0.105
     7   1 H    0.945 --     1 N    0.870
     8   6 C    3.977 --    11 C    1.678     5 C    1.174    22 H    0.962
     9   7 N    3.517 --    10 C    1.182    11 C    1.134    17 H    0.942
                            18 O    0.136
    10   6 C    3.947 --    18 O    1.550     9 N    1.182     5 C    1.082
    11   6 C    3.938 --     8 C    1.678     9 N    1.134    23 H    0.970
    12   6 C    3.992 --     6 C    1.457    14 C    1.432    19 H    0.970
                             4 C    0.106
    13   6 C    3.992 --     4 C    1.460    14 C    1.429    20 H    0.971
                             6 C    0.105
    14   6 C    3.978 --    12 C    1.432    13 C    1.429    21 H    0.971
                             3 C    0.102
    15   1 H    0.997 --     6 C    0.958
    16   1 H    0.999 --     4 C    0.958
    17   1 H    0.970 --     9 N    0.942
    18   8 O    1.973 --    10 C    1.550     9 N    0.136
    19   1 H    0.998 --    12 C    0.970
    20   1 H    0.998 --    13 C    0.971
    21   1 H    0.998 --    14 C    0.971
    22   1 H    0.999 --     8 C    0.962
    23   1 H    0.998 --    11 C    0.970
    24   1 H    0.969 --     1 N    0.935
 ---------------------------------------------------------------------------

molecular dipole:
                 x           y           z       tot (Debye)
 q only:       -0.709      -0.885      -0.013
   full:       -0.835      -0.692       0.027       2.757

           -------------------------------------------------
          | TOTAL ENERGY              -38.545292945867 Eh   |
          | GRADIENT NORM               0.000870147321 Eh/α |
          | HOMO-LUMO GAP               1.911253014896 eV   |
           -------------------------------------------------

 * finished run on 2023/11/18 at 08:42:17.278
