                               Psi4 1.6 release

  ==> Input File <==

--------------------------------------------------------------------------
molecule {
0 1
 N    1.251076    0.345846   -1.599716
 C    0.427757    0.104229   -0.552841
 C   -0.303804   -1.169914   -0.549492
 C    0.061437   -2.191867   -1.431981
 C    0.407065    1.033440    0.471220
 C   -1.491253   -1.327955    0.168914
 H    1.646436    1.289148   -1.607006
 C   -0.203808    1.045268    1.774370
 N    0.689617    3.062890    1.428677
 C    1.006457    2.358563    0.301587
 C   -0.004275    2.263210    2.316931
 C   -2.223983   -2.496660    0.084344
 C   -0.670315   -3.360618   -1.512627
 C   -1.813837   -3.523637   -0.748949
 H   -1.864926   -0.515874    0.768789
 H    0.969522   -2.106550   -2.010705
 H    0.987752    4.007765    1.602867
 O    1.643330    2.814465   -0.650514
 H   -3.132598   -2.599022    0.659474
 H   -0.352390   -4.144672   -2.184343
 H   -2.387751   -4.435770   -0.814840
 H   -0.661519    0.214819    2.272251
 H   -0.301219    2.643896    3.275140
 H    1.045619   -0.073583   -2.490713
}
memory 20GB
set_num_threads(5)
psi4_io.set_default_path("/scratch/liuchw/Psi4-7_11_Index_0-farH_in17")
set freeze_core True
E, wfn = energy('wb97x-d/6-311+G*',return_wfn=True)
oeprop(wfn,"WIBERG_LOWDIN_INDICES")
clean()
--------------------------------------------------------------------------

    Molecular point group: c1

    Geometry (in Angstrom), charge = 0, multiplicity = 1:

       Center              X                  Y                   Z               Mass
    ------------   -----------------  -----------------  -----------------  -----------------
         N            1.295814401663     0.346952964059    -1.548794155824    14.003074004430
         C            0.472495401663     0.105335964059    -0.501919155824    12.000000000000
         C           -0.259065598337    -1.168807035941    -0.498570155824    12.000000000000
         C            0.106175401663    -2.190760035941    -1.381059155824    12.000000000000
         C            0.451803401663     1.034546964059     0.522141844176    12.000000000000
         C           -1.446514598337    -1.326848035941     0.219835844176    12.000000000000
         H            1.691174401663     1.290254964059    -1.556084155824     1.007825032230
         C           -0.159069598337     1.046374964059     1.825291844176    12.000000000000
         N            0.734355401663     3.063996964059     1.479598844176    14.003074004430
         C            1.051195401663     2.359669964059     0.352508844176    12.000000000000
         C            0.040463401663     2.264316964059     2.367852844176    12.000000000000
         C           -2.179244598337    -2.495553035941     0.135265844176    12.000000000000
         C           -0.625576598337    -3.359511035941    -1.461705155824    12.000000000000
         C           -1.769098598337    -3.522530035941    -0.698027155824    12.000000000000
         H           -1.820187598337    -0.514767035941     0.819710844176     1.007825032230
         H            1.014260401663    -2.105443035941    -1.959783155824     1.007825032230
         H            1.032490401663     4.008871964059     1.653788844176     1.007825032230
         O            1.688068401663     2.815571964059    -0.599592155824    15.994914619570
         H           -3.087859598337    -2.597915035941     0.710395844176     1.007825032230
         H           -0.307651598337    -4.143565035941    -2.133421155824     1.007825032230
         H           -2.343012598337    -4.434663035941    -0.763918155824     1.007825032230
         H           -0.616780598337     0.215925964059     2.323172844176     1.007825032230
         H           -0.256480598337     2.645002964059     3.326061844176     1.007825032230
         H            1.090357401663    -0.072476035941    -2.439791155824     1.007825032230

  Charge       = 0
  Multiplicity = 1
  Basis Set: 6-311+G*
    Blend: 6-311+G*
  Basis Set: (6-311+G* AUX)
    Blend: HEAVY-AUG-CC-PVTZ-JKFIT

    Orbital Energies [Eh]
    ---------------------

    Doubly Occupied:

       1A    -19.204751     2A    -14.462531     3A    -14.448232
       4A    -10.373881     5A    -10.359985     6A    -10.317049
       7A    -10.313186     8A    -10.305896     9A    -10.303823
      10A    -10.303466    11A    -10.302567    12A    -10.301584
      13A    -10.279400    14A    -10.274409    15A     -1.138704
      16A     -1.058650    17A     -1.047070    18A     -0.980239
      19A     -0.899791    20A     -0.875579    21A     -0.866988
      22A     -0.819313    23A     -0.767820    24A     -0.727592
      25A     -0.713246    26A     -0.688727    27A     -0.664605
      28A     -0.634135    29A     -0.604128    30A     -0.595437
      31A     -0.580575    32A     -0.560563    33A     -0.542657
      34A     -0.532364    35A     -0.527681    36A     -0.514429
      37A     -0.510692    38A     -0.497745    39A     -0.491268
      40A     -0.477842    41A     -0.452229    42A     -0.444319
      43A     -0.440369    44A     -0.412108    45A     -0.350234
      46A     -0.348144    47A     -0.337687    48A     -0.334931
      49A     -0.258698

  @DF-RKS Final Energy:  -609.85350800066033

   => Energetics <=

    Nuclear Repulsion Energy =            820.5497459904255493
    One-Electron Energy =               -2453.9861270898677503
    Two-Electron Energy =                1082.9348290079931303
    DFT Exchange-Correlation Energy =     -59.3379312076326926
    Empirical Dispersion Energy =          -0.0140247015784584
    VV10 Nonlocal Energy =                  0.0000000000000000
    Total Energy =                       -609.8535080006603266
 Dipole X            :          2.5166707           -3.3761349           -0.8594642
 Dipole Y            :          4.4485599           -5.3481791           -0.8996193
 Dipole Z            :          0.2385832           -0.0213053            0.2172779
 Magnitude           :                                                    1.2630135
*** Psi4 exiting successfully. Buy a developer a beer!
