   * xtb version 6.5.0 (97a52f5) compiled by 'conda@d2599ee0d4f4' on 2022-05-15
          program call               : /home/liuchw/anaconda3/envs/xtbenv/bin/xtb --gfn 2 --chrg 0 --uhf 0 7_11_Index_0-opt-2-3-163_preQMOPTprefit_xyzformat.xyz --opt --input xtb-opt-2-3-163_constr.txt

   ID    Z sym.   atoms
    1    7 N      1, 9
    2    6 C      2-6, 8, 10-14
    3    1 H      7, 15-17, 19-24
    4    8 O      18
constraining angle 1 2 3 4 to  162.7480810°, actual value:  162.7480810°
constraining angle 24 1 2 3 to   27.9505299°, actual value:   27.9505299°
constraining angle 24 1 2 5 to  204.0452766°, actual value: -155.9547234°
constraining angle 7 1 2 3 to  172.9678494°, actual value:  172.9678494°
constraining angle 7 1 2 5 to  349.0625961°, actual value:  -10.9374039°
constraining angle 1 2 5 8 to  187.9349858°, actual value: -172.0650142°

          :  Hamiltonian                  GFN2-xTB          :
 * total energy  :   -38.5323046 Eh     change       -0.9140635E-09 Eh
 * total energy  :   -38.5431587 Eh     change       -0.1085406E-01 Eh
 * total energy  :   -38.5443744 Eh     change       -0.1215724E-02 Eh
 * total energy  :   -38.5436001 Eh     change        0.7742688E-03 Eh
 * total energy  :   -38.5448635 Eh     change       -0.1263424E-02 Eh
 * total energy  :   -38.5448821 Eh     change       -0.1859146E-04 Eh
 * total energy  :   -38.5448972 Eh     change       -0.1511123E-04 Eh
 * total energy  :   -38.5449006 Eh     change       -0.3342223E-05 Eh
 * total energy  :   -38.5449033 Eh     change       -0.2683136E-05 Eh
   *** GEOMETRY OPTIMIZATION CONVERGED AFTER 9 ITERATIONS ***

 final structure:
================
24
 xtb: 6.5.0 (97a52f5)
N            1.83831070087691       -0.49056705241023        0.74937100244366
C            0.59860953416796       -0.19344489607715        0.29825376155408
C           -0.25976230900152       -1.33534917603740       -0.07431552032108
C           -1.64516799077117       -1.23141227086797       -0.21420155657087
C            0.23586594796240        1.14729801252942        0.31072345674167
C            0.31822247338975       -2.56264057436322       -0.42501594662895
H            2.43960671281171        0.32800199974388        0.88825248844143
C           -0.98640580688581        1.86912297268157        0.06644898226230
N            0.58637235553111        3.37928359984014        0.53748471927255
C            1.23072308724481        2.17950922947114        0.62660112049969
C           -0.73845742827754        3.18701736347679        0.20682209513817
C           -0.44688394083137       -3.62711137342622       -0.85966532371369
C           -2.41228559092333       -2.29708288976442       -0.64515866608481
C           -1.81985193050553       -3.50195395128061       -0.97889161086410
H            1.38758941766096       -2.70875325856636       -0.38302824393004
H           -2.14795186679412       -0.33322408491380        0.09006217630025
H            1.02773457541557        4.26638082480405        0.71080838848640
O            2.42763303950900        2.06620818361593        0.90848079555458
H            0.03598818081272       -4.55845646902930       -1.11768870066492
H           -3.48326481079653       -2.18130218961860       -0.72514035300234
H           -2.41769539783837       -4.33138080902268       -1.32537799780121
H           -1.93713736395607        1.47780773870724       -0.22757232299666
H           -1.40475347414074        4.02157993822309        0.10338619337041
H            2.29734788534113       -1.33212188771517        0.45020408251398

          :  Hamiltonian                  GFN2-xTB          :
         :: total energy             -38.544903266489 Eh    ::
         :: gradient norm              0.000907075097 Eh/a0 ::
         :: HOMO-LUMO gap              1.900825626945 eV    ::
         :: SCC energy               -39.170939751100 Eh    ::
         :: -> dispersion             -0.023653343977 Eh    ::
         :: repulsion energy           0.626014501738 Eh    ::

    * Orbital Energies and Occupations

         #    Occupation            Energy/Eh            Energy/eV
      -------------------------------------------------------------
         1        2.0000           -0.6801080             -18.5067
       ...           ...                  ...                  ...
        23        2.0000           -0.4831958             -13.1484
        24        2.0000           -0.4751915             -12.9306
        25        2.0000           -0.4727895             -12.8653
        26        2.0000           -0.4655607             -12.6686
        27        2.0000           -0.4531972             -12.3321
        28        2.0000           -0.4527109             -12.3189
        29        2.0000           -0.4382510             -11.9254
        30        2.0000           -0.4272659             -11.6265
        31        2.0000           -0.4146098             -11.2821
        32        2.0000           -0.4125039             -11.2248
        33        2.0000           -0.3962339             -10.7821
        34        2.0000           -0.3776810             -10.2772
        35        2.0000           -0.3458258              -9.4104 (HOMO)
        36                         -0.2759717              -7.5096 (LUMO)
        37                         -0.2322128              -6.3188
        38                         -0.2095931              -5.7033
        39                         -0.1659913              -4.5169
        40                         -0.1198248              -3.2606
        41                         -0.0824808              -2.2444
        42                          0.0256867               0.6990
        43                          0.0371753               1.0116
        44                          0.0828949               2.2557
        45                          0.1059325               2.8826
        46                          0.1287915               3.5046
       ...                                ...                  ...
        66                          0.7330373              19.9470
      -------------------------------------------------------------
                  HL-Gap            0.0698541 Eh            1.9008 eV

     #   Z          covCN         q      C6AA      α(0)
     1   7 N        2.651    -0.254    26.610     7.661
     2   6 C        2.882     0.093    25.935     8.349
     3   6 C        2.968     0.006    27.888     8.662
     4   6 C        2.927    -0.032    28.797     8.800
     5   6 C        3.071    -0.073    29.736     8.941
     6   6 C        2.928    -0.031    28.771     8.797
     7   1 H        0.859     0.234     0.949     1.526
     8   6 C        2.993    -0.072    29.788     8.953
     9   7 N        2.772    -0.144    24.105     7.292
    10   6 C        2.889     0.254    22.749     7.820
    11   6 C        2.986    -0.000    28.032     8.685
    12   6 C        2.918    -0.029    28.723     8.789
    13   6 C        2.919    -0.028    28.699     8.785
    14   6 C        2.919    -0.027    28.673     8.781
    15   1 H        0.926     0.031     2.574     2.509
    16   1 H        0.926     0.050     2.314     2.379
    17   1 H        0.860     0.170     1.273     1.767
    18   8 O        0.857    -0.489    23.541     6.505
    19   1 H        0.926     0.034     2.534     2.489
    20   1 H        0.926     0.035     2.510     2.478
    21   1 H        0.926     0.035     2.514     2.480
    22   1 H        0.927     0.032     2.553     2.498
    23   1 H        0.926     0.033     2.540     2.492
    24   1 H        0.860     0.171     1.264     1.761

Wiberg/Mayer (AO) data.
largest (>0.10) Wiberg bond orders for each atom

     #   Z sym  total        # sym  WBO       # sym  WBO       # sym  WBO
 ---------------------------------------------------------------------------
     1   7 N    3.397 --     2 C    1.298    24 H    0.934     7 H    0.868
     2   6 C    3.968 --     5 C    1.413     1 N    1.298     3 C    1.063
     3   6 C    3.988 --     4 C    1.378     6 C    1.372     2 C    1.063
                            14 C    0.102
     4   6 C    3.984 --    13 C    1.457     3 C    1.378    16 H    0.957
                            12 C    0.105
     5   6 C    3.967 --     2 C    1.413     8 C    1.175    10 C    1.082
     6   6 C    3.985 --    12 C    1.460     3 C    1.372    15 H    0.958
                            13 C    0.106
     7   1 H    0.945 --     1 N    0.868
     8   6 C    3.977 --    11 C    1.677     5 C    1.175    22 H    0.960
     9   7 N    3.518 --    10 C    1.183    11 C    1.134    17 H    0.942
                            18 O    0.135
    10   6 C    3.947 --    18 O    1.548     9 N    1.183     5 C    1.082
    11   6 C    3.938 --     8 C    1.677     9 N    1.134    23 H    0.970
    12   6 C    3.992 --     6 C    1.460    14 C    1.428    19 H    0.971
                             4 C    0.105
    13   6 C    3.992 --     4 C    1.457    14 C    1.432    20 H    0.971
                             6 C    0.106
    14   6 C    3.977 --    13 C    1.432    12 C    1.428    21 H    0.971
                             3 C    0.102
    15   1 H    0.999 --     6 C    0.958
    16   1 H    0.997 --     4 C    0.957
    17   1 H    0.970 --     9 N    0.942
    18   8 O    1.974 --    10 C    1.548     9 N    0.135
    19   1 H    0.998 --    12 C    0.971
    20   1 H    0.998 --    13 C    0.971
    21   1 H    0.998 --    14 C    0.971
    22   1 H    0.999 --     8 C    0.960
    23   1 H    0.998 --    11 C    0.970
    24   1 H    0.969 --     1 N    0.934
 ---------------------------------------------------------------------------

molecular dipole:
                 x           y           z       tot (Debye)
 q only:       -0.735      -0.775      -0.339
   full:       -0.759      -0.587      -0.500       2.749

           -------------------------------------------------
          | TOTAL ENERGY              -38.544903266489 Eh   |
          | GRADIENT NORM               0.000907075097 Eh/α |
          | HOMO-LUMO GAP               1.900825626945 eV   |
           -------------------------------------------------

 * finished run on 2023/11/18 at 08:43:32.571
