                               Psi4 1.6 release

  ==> Input File <==

--------------------------------------------------------------------------
molecule {
0 1
 N    0.988423    0.518468   -1.828574
 C    0.310062    0.208845   -0.699599
 C   -0.409045   -1.073447   -0.668481
 C    0.199338   -2.221228   -1.172106
 C    0.383257    1.044662    0.387416
 C   -1.696901   -1.160590   -0.145555
 H    1.371518    1.464622   -1.832949
 C   -0.096815    0.892470    1.735259
 N    0.829490    2.920225    1.553873
 C    1.001588    2.366761    0.314996
 C    0.192675    2.027633    2.400366
 C   -2.360802   -2.373255   -0.128094
 C   -0.465087   -3.433182   -1.143776
 C   -1.746481   -3.511917   -0.623527
 H   -2.178790   -0.268887    0.225970
 H    1.202584   -2.158192   -1.567608
 H    1.168546    3.830220    1.816799
 O    1.543217    2.919140   -0.642186
 H   -3.362463   -2.430884    0.272015
 H    0.017938   -4.319524   -1.528173
 H   -2.265978   -4.458487   -0.605736
 H   -0.572151    0.018444    2.133633
 H    0.002081    2.293409    3.422399
 H    0.668183    0.142111   -2.705526
}
memory 20GB
set_num_threads(5)
psi4_io.set_default_path("/scratch/liuchw/Psi4-7_11_Index_0-farH_in17")
set freeze_core True
E, wfn = energy('wb97x-d/6-311+G*',return_wfn=True)
oeprop(wfn,"WIBERG_LOWDIN_INDICES")
clean()
--------------------------------------------------------------------------

    Molecular point group: c1

    Geometry (in Angstrom), charge = 0, multiplicity = 1:

       Center              X                  Y                   Z               Mass
    ------------   -----------------  -----------------  -----------------  -----------------
         N            1.042690004768     0.507120922739    -1.767268714070    14.003074004430
         C            0.364329004768     0.197497922739    -0.638293714070    12.000000000000
         C           -0.354777995232    -1.084794077261    -0.607175714070    12.000000000000
         C            0.253605004768    -2.232575077261    -1.110800714070    12.000000000000
         C            0.437524004768     1.033314922739     0.448721285930    12.000000000000
         C           -1.642633995232    -1.171937077261    -0.084249714070    12.000000000000
         H            1.425785004768     1.453274922739    -1.771643714070     1.007825032230
         C           -0.042547995232     0.881122922739     1.796564285930    12.000000000000
         N            0.883757004768     2.908877922739     1.615178285930    14.003074004430
         C            1.055855004768     2.355413922739     0.376301285930    12.000000000000
         C            0.246942004768     2.016285922739     2.461671285930    12.000000000000
         C           -2.306534995232    -2.384602077261    -0.066788714070    12.000000000000
         C           -0.410819995232    -3.444529077261    -1.082470714070    12.000000000000
         C           -1.692213995232    -3.523264077261    -0.562221714070    12.000000000000
         H           -2.124522995232    -0.280234077261     0.287275285930     1.007825032230
         H            1.256851004768    -2.169539077261    -1.506302714070     1.007825032230
         H            1.222813004768     3.818872922739     1.878104285930     1.007825032230
         O            1.597484004768     2.907792922739    -0.580880714070    15.994914619570
         H           -3.308195995232    -2.442231077261     0.333320285930     1.007825032230
         H            0.072205004768    -4.330871077261    -1.466867714070     1.007825032230
         H           -2.211710995232    -4.469834077261    -0.544430714070     1.007825032230
         H           -0.517883995232     0.007096922739     2.194938285930     1.007825032230
         H            0.056348004768     2.282061922739     3.483704285930     1.007825032230
         H            0.722450004768     0.130763922739    -2.644220714070     1.007825032230

  Charge       = 0
  Multiplicity = 1
  Basis Set: 6-311+G*
    Blend: 6-311+G*
  Basis Set: (6-311+G* AUX)
    Blend: HEAVY-AUG-CC-PVTZ-JKFIT

    Orbital Energies [Eh]
    ---------------------

    Doubly Occupied:

       1A    -19.203028     2A    -14.460865     3A    -14.452159
       4A    -10.372421     5A    -10.357280     6A    -10.314078
       7A    -10.311328     8A    -10.303756     9A    -10.303133
      10A    -10.302519    11A    -10.301517    12A    -10.301274
      13A    -10.276098    14A    -10.272461    15A     -1.136283
      16A     -1.056427    17A     -1.047925    18A     -0.980123
      19A     -0.900392    20A     -0.873736    21A     -0.866537
      22A     -0.817541    23A     -0.766515    24A     -0.724501
      25A     -0.713949    26A     -0.685289    27A     -0.664531
      28A     -0.631356    29A     -0.607204    30A     -0.593227
      31A     -0.578486    32A     -0.558547    33A     -0.549445
      34A     -0.529300    35A     -0.524449    36A     -0.513869
      37A     -0.511486    38A     -0.496466    39A     -0.483624
      40A     -0.476442    41A     -0.449422    42A     -0.446776
      43A     -0.438285    44A     -0.410598    45A     -0.349747
      46A     -0.347840    47A     -0.336482    48A     -0.334521
      49A     -0.258832

  @DF-RKS Final Energy:  -609.85911680281026

   => Energetics <=

    Nuclear Repulsion Energy =            821.6379864496905157
    One-Electron Energy =               -2456.2841533925457043
    Two-Electron Energy =                1084.1381488832646482
    DFT Exchange-Correlation Energy =     -59.3367575905297144
    Empirical Dispersion Energy =          -0.0143411526901090
    VV10 Nonlocal Energy =                  0.0000000000000000
    Total Energy =                       -609.8591168028103766
 Dipole X            :          2.3972530           -3.1908111           -0.7935582
 Dipole Y            :          4.6337245           -5.6213656           -0.9876411
 Dipole Z            :          0.0053743            0.2262777            0.2316521
 Magnitude           :                                                    1.2879566
*** Psi4 exiting successfully. Buy a developer a beer!
