   * xtb version 6.5.0 (97a52f5) compiled by 'conda@d2599ee0d4f4' on 2022-05-15
          program call               : /home/liuchw/anaconda3/envs/xtbenv/bin/xtb --gfn 2 --chrg 0 --uhf 0 7_11_Index_0-opt-2-3-133_preQMOPTprefit_xyzformat.xyz --opt --input xtb-opt-2-3-133_constr.txt

   ID    Z sym.   atoms
    1    7 N      1, 9
    2    6 C      2-6, 8, 10-14
    3    1 H      7, 15-17, 19-24
    4    8 O      18
constraining angle 1 2 3 4 to  132.8217332°, actual value:  132.8217332°
constraining angle 24 1 2 3 to   27.9580482°, actual value:   27.9580482°
constraining angle 24 1 2 5 to  204.0236748°, actual value: -155.9763252°
constraining angle 7 1 2 3 to  172.9792420°, actual value:  172.9792420°
constraining angle 7 1 2 5 to  349.0448687°, actual value:  -10.9551313°
constraining angle 1 2 5 8 to  187.9555266°, actual value: -172.0444734°

          :  Hamiltonian                  GFN2-xTB          :
 * total energy  :   -38.5417770 Eh     change       -0.5384422E-09 Eh
 * total energy  :   -38.5503552 Eh     change       -0.8578242E-02 Eh
 * total energy  :   -38.5508914 Eh     change       -0.5361808E-03 Eh
 * total energy  :   -38.5507960 Eh     change        0.9535872E-04 Eh
 * total energy  :   -38.5514959 Eh     change       -0.6998300E-03 Eh
 * total energy  :   -38.5515206 Eh     change       -0.2478674E-04 Eh
 * total energy  :   -38.5515430 Eh     change       -0.2238181E-04 Eh
 * total energy  :   -38.5515511 Eh     change       -0.8053948E-05 Eh
 * total energy  :   -38.5515589 Eh     change       -0.7856252E-05 Eh
 * total energy  :   -38.5515640 Eh     change       -0.5013689E-05 Eh
 * total energy  :   -38.5515663 Eh     change       -0.2314633E-05 Eh
 * total energy  :   -38.5515670 Eh     change       -0.6941201E-06 Eh
   *** GEOMETRY OPTIMIZATION CONVERGED AFTER 12 ITERATIONS ***

 final structure:
================
24
 xtb: 6.5.0 (97a52f5)
N            1.75068542320417       -0.55777152399127        1.09180817803585
C            0.62513107421231       -0.21971998951848        0.42392734512665
C           -0.23448231129029       -1.31879141846786       -0.04744914026675
C           -1.61203464043830       -1.29871407250546        0.15967682311530
C            0.29491329380787        1.10862793382449        0.28757369738537
C            0.32358612706129       -2.39244008386040       -0.74001203450368
H            2.36460457160222        0.23319382897581        1.29588252428433
C           -0.88098473021732        1.76239768769978       -0.22417075549073
N            0.55460350027751        3.34582202050503        0.43239889128198
C            1.20078303365543        2.17461284510487        0.71486365237423
C           -0.68632822710409        3.09188558642356       -0.12525080069024
C           -0.47441719944128       -3.41725902283569       -1.21313354093874
C           -2.40597843287931       -2.32981578649365       -0.30672102419581
C           -1.84206587726736       -3.38891215813879       -0.99877537933182
H            1.38645012172438       -2.41356356904379       -0.93836466372908
H           -2.05004011855867       -0.49441661687190        0.72925031378203
H            0.93287421513762        4.25880909985725        0.62046380119986
O            2.32276082228444        2.08976142264748        1.21508609449998
H           -0.02812489617515       -4.23859631589694       -1.75441831769820
H           -3.47121844440255       -2.30752133789832       -0.12934330230976
H           -2.46515490714715       -4.18972250463634       -1.36810873636517
H           -1.73659835080163        1.27947588650727       -0.65079448917540
H           -1.33350736910596        3.90259358213492       -0.39983036867722
H            2.18892632186171       -1.44252750352178        0.89628423228709

          :  Hamiltonian                  GFN2-xTB          :
         :: total energy             -38.551566961929 Eh    ::
         :: gradient norm              0.000267925516 Eh/a0 ::
         :: HOMO-LUMO gap              2.115109039243 eV    ::
         :: SCC energy               -39.181932930850 Eh    ::
         :: -> dispersion             -0.023832890342 Eh    ::
         :: repulsion energy           0.630307563729 Eh    ::

    * Orbital Energies and Occupations

         #    Occupation            Energy/Eh            Energy/eV
      -------------------------------------------------------------
         1        2.0000           -0.6781868             -18.4544
       ...           ...                  ...                  ...
        23        2.0000           -0.4837534             -13.1636
        24        2.0000           -0.4749363             -12.9237
        25        2.0000           -0.4730410             -12.8721
        26        2.0000           -0.4655155             -12.6673
        27        2.0000           -0.4527157             -12.3190
        28        2.0000           -0.4510636             -12.2741
        29        2.0000           -0.4372294             -11.8976
        30        2.0000           -0.4308918             -11.7252
        31        2.0000           -0.4153720             -11.3028
        32        2.0000           -0.4132492             -11.2451
        33        2.0000           -0.3963308             -10.7847
        34        2.0000           -0.3763391             -10.2407
        35        2.0000           -0.3457390              -9.4080 (HOMO)
        36                         -0.2680102              -7.2929 (LUMO)
        37                         -0.2332415              -6.3468
        38                         -0.2179928              -5.9319
        39                         -0.1648858              -4.4868
        40                         -0.1153068              -3.1377
        41                         -0.0912849              -2.4840
        42                          0.0307340               0.8363
        43                          0.0413728               1.1258
        44                          0.0921236               2.5068
        45                          0.1138794               3.0988
        46                          0.1341360               3.6500
       ...                                ...                  ...
        66                          0.7411477              20.1677
      -------------------------------------------------------------
                  HL-Gap            0.0777288 Eh            2.1151 eV

     #   Z          covCN         q      C6AA      α(0)
     1   7 N        2.647    -0.246    26.419     7.634
     2   6 C        2.884     0.093    25.933     8.349
     3   6 C        2.976     0.007    27.865     8.659
     4   6 C        2.924    -0.029    28.718     8.788
     5   6 C        3.086    -0.074    29.741     8.940
     6   6 C        2.925    -0.032    28.790     8.799
     7   1 H        0.860     0.228     0.975     1.547
     8   6 C        2.984    -0.072    29.782     8.952
     9   7 N        2.774    -0.147    24.179     7.303
    10   6 C        2.875     0.256    22.700     7.810
    11   6 C        2.989     0.001    28.003     8.680
    12   6 C        2.918    -0.028    28.711     8.787
    13   6 C        2.919    -0.027    28.682     8.782
    14   6 C        2.920    -0.028    28.694     8.784
    15   1 H        0.925     0.029     2.594     2.519
    16   1 H        0.926     0.046     2.371     2.408
    17   1 H        0.860     0.168     1.284     1.775
    18   8 O        0.857    -0.488    23.529     6.503
    19   1 H        0.926     0.035     2.523     2.484
    20   1 H        0.926     0.036     2.498     2.472
    21   1 H        0.926     0.035     2.513     2.479
    22   1 H        0.926     0.032     2.560     2.502
    23   1 H        0.926     0.033     2.550     2.497
    24   1 H        0.860     0.173     1.256     1.756

Wiberg/Mayer (AO) data.
largest (>0.10) Wiberg bond orders for each atom

     #   Z sym  total        # sym  WBO       # sym  WBO       # sym  WBO
 ---------------------------------------------------------------------------
     1   7 N    3.391 --     2 C    1.287    24 H    0.943     7 H    0.889
     2   6 C    3.969 --     5 C    1.444     1 N    1.287     3 C    1.039
     3   6 C    3.989 --     6 C    1.388     4 C    1.385     2 C    1.039
                            14 C    0.105
     4   6 C    3.986 --    13 C    1.453     3 C    1.385    16 H    0.967
                            12 C    0.109
     5   6 C    3.968 --     2 C    1.444     8 C    1.162    10 C    1.076
     6   6 C    3.987 --    12 C    1.451     3 C    1.388    15 H    0.967
                            13 C    0.108
     7   1 H    0.947 --     1 N    0.889
     8   6 C    3.979 --    11 C    1.691     5 C    1.162    22 H    0.969
     9   7 N    3.512 --    10 C    1.178    11 C    1.128    17 H    0.943
                            18 O    0.141
    10   6 C    3.949 --    18 O    1.565     9 N    1.178     5 C    1.076
    11   6 C    3.943 --     8 C    1.691     9 N    1.128    23 H    0.970
    12   6 C    3.992 --     6 C    1.451    14 C    1.435    19 H    0.970
                             4 C    0.109
    13   6 C    3.992 --     4 C    1.453    14 C    1.433    20 H    0.970
                             6 C    0.108
    14   6 C    3.983 --    12 C    1.435    13 C    1.433    21 H    0.971
                             3 C    0.105
    15   1 H    0.999 --     6 C    0.967
    16   1 H    0.998 --     4 C    0.967
    17   1 H    0.971 --     9 N    0.943
    18   8 O    1.968 --    10 C    1.565     9 N    0.141
    19   1 H    0.998 --    12 C    0.970
    20   1 H    0.998 --    13 C    0.970
    21   1 H    0.998 --    14 C    0.971
    22   1 H    0.999 --     8 C    0.969
    23   1 H    0.998 --    11 C    0.970
    24   1 H    0.969 --     1 N    0.943
 ---------------------------------------------------------------------------

molecular dipole:
                 x           y           z       tot (Debye)
 q only:       -0.696      -0.888      -0.390
   full:       -0.693      -0.695      -0.579       2.896

           -------------------------------------------------
          | TOTAL ENERGY              -38.551566961929 Eh   |
          | GRADIENT NORM               0.000267925516 Eh/α |
          | HOMO-LUMO GAP               2.115109039243 eV   |
           -------------------------------------------------

 * finished run on 2023/11/18 at 08:43:51.624
