   * xtb version 6.5.0 (97a52f5) compiled by 'conda@d2599ee0d4f4' on 2022-05-15
          program call               : /home/liuchw/anaconda3/envs/xtbenv/bin/xtb --gfn 2 --chrg 0 --uhf 0 7_11_Index_0-opt-2-3-073_preQMOPTprefit_xyzformat.xyz --opt --input xtb-opt-2-3-073_constr.txt

   ID    Z sym.   atoms
    1    7 N      1, 9
    2    6 C      2-6, 8, 10-14
    3    1 H      7, 15-17, 19-24
    4    8 O      18
constraining angle 1 2 3 4 to   73.0139860°, actual value:   73.0139860°
constraining angle 24 1 2 3 to   28.0051637°, actual value:   28.0051637°
constraining angle 24 1 2 5 to  203.9978916°, actual value: -156.0021084°
constraining angle 7 1 2 3 to  173.0090541°, actual value:  173.0090541°
constraining angle 7 1 2 5 to  349.0017820°, actual value:  -10.9982180°
constraining angle 1 2 5 8 to  188.0056666°, actual value: -171.9943334°

          :  Hamiltonian                  GFN2-xTB          :
 * total energy  :   -38.5421073 Eh     change       -0.1713332E-09 Eh
 * total energy  :   -38.5497005 Eh     change       -0.7593203E-02 Eh
 * total energy  :   -38.5501136 Eh     change       -0.4130698E-03 Eh
 * total energy  :   -38.5498202 Eh     change        0.2933408E-03 Eh
 * total energy  :   -38.5505413 Eh     change       -0.7210653E-03 Eh
 * total energy  :   -38.5505786 Eh     change       -0.3730859E-04 Eh
 * total energy  :   -38.5506234 Eh     change       -0.4485391E-04 Eh
 * total energy  :   -38.5506404 Eh     change       -0.1698119E-04 Eh
 * total energy  :   -38.5506516 Eh     change       -0.1113980E-04 Eh
 * total energy  :   -38.5506655 Eh     change       -0.1391062E-04 Eh
 * total energy  :   -38.5506712 Eh     change       -0.5758640E-05 Eh
 * total energy  :   -38.5506775 Eh     change       -0.6217342E-05 Eh
 * total energy  :   -38.5506819 Eh     change       -0.4467338E-05 Eh
   *** GEOMETRY OPTIMIZATION CONVERGED AFTER 13 ITERATIONS ***

 final structure:
================
24
 xtb: 6.5.0 (97a52f5)
N            1.29341294289218       -0.52002533169183        1.71955232915972
C            0.47962827489603       -0.21207194471739        0.68525470157290
C           -0.31229289628041       -1.30735921568124        0.08129565836585
C           -1.40066740346561       -1.83642079828926        0.76517887493726
C            0.34013987444021        1.08581402714462        0.27672739793405
C            0.00295821964907       -1.78942723437568       -1.18359796631397
H            1.89246646313430        0.25121327220061        2.01571213185869
C           -0.56220299714072        1.67553011798109       -0.67753375398071
N            0.74932369327749        3.29466346394423        0.13787565171444
C            1.16545083590251        2.17210332619476        0.79953502518037
C           -0.28848091450346        2.99265998975362       -0.73043646526417
C           -0.74856588254465       -2.80560173427138       -1.74675589066549
C           -2.15314842508529       -2.84811022533195        0.19593497558075
C           -1.82628276371325       -3.33655297588846       -1.05808293460725
H            0.83978562127042       -1.36644947218339       -1.72011843964990
H           -1.65066862469473       -1.45011106004305        1.74212588362416
H            1.12676922820880        4.21415733343751        0.29377649980500
O            2.06685280946015        2.12662931499016        1.63492159281071
H           -0.49427414983469       -3.18156490694125       -2.72682653810139
H           -2.99816938207841       -3.25489471150602        0.73160852079628
H           -2.41308552357844       -4.12827380130673       -1.49980314834824
H           -1.30994108273148        1.14487478828825       -1.23274153802894
H           -0.74546506040906        3.76784913577467       -1.31508662509658
H            1.67083912292895       -1.45122136748221        1.78232905671640

          :  Hamiltonian                  GFN2-xTB          :
         :: total energy             -38.550681924543 Eh    ::
         :: gradient norm              0.000341121293 Eh/a0 ::
         :: HOMO-LUMO gap              2.444530742192 eV    ::
         :: SCC energy               -39.183510169323 Eh    ::
         :: -> dispersion             -0.023787250624 Eh    ::
         :: repulsion energy           0.632718025475 Eh    ::

    * Orbital Energies and Occupations

         #    Occupation            Energy/Eh            Energy/eV
      -------------------------------------------------------------
         1        2.0000           -0.6778892             -18.4463
       ...           ...                  ...                  ...
        23        2.0000           -0.4834382             -13.1550
        24        2.0000           -0.4761050             -12.9555
        25        2.0000           -0.4734247             -12.8825
        26        2.0000           -0.4651318             -12.6569
        27        2.0000           -0.4530895             -12.3292
        28        2.0000           -0.4504936             -12.2586
        29        2.0000           -0.4346834             -11.8283
        30        2.0000           -0.4313587             -11.7379
        31        2.0000           -0.4144137             -11.2768
        32        2.0000           -0.4110540             -11.1853
        33        2.0000           -0.3973311             -10.8119
        34        2.0000           -0.3760245             -10.2321
        35        2.0000           -0.3464118              -9.4263 (HOMO)
        36                         -0.2565769              -6.9818 (LUMO)
        37                         -0.2324781              -6.3261
        38                         -0.2314522              -6.2981
        39                         -0.1644682              -4.4754
        40                         -0.1099693              -2.9924
        41                         -0.1007983              -2.7429
        42                          0.0321136               0.8739
        43                          0.0449297               1.2226
        44                          0.0865001               2.3538
        45                          0.1187466               3.2313
        46                          0.1344545               3.6587
       ...                                ...                  ...
        66                          0.7448381              20.2681
      -------------------------------------------------------------
                  HL-Gap            0.0898349 Eh            2.4445 eV

     #   Z          covCN         q      C6AA      α(0)
     1   7 N        2.645    -0.241    26.286     7.615
     2   6 C        2.885     0.094    25.915     8.346
     3   6 C        2.979     0.006    27.880     8.661
     4   6 C        2.924    -0.030    28.742     8.792
     5   6 C        3.093    -0.075    29.749     8.940
     6   6 C        2.924    -0.031    28.765     8.795
     7   1 H        0.860     0.226     0.982     1.552
     8   6 C        2.980    -0.070    29.727     8.944
     9   7 N        2.776    -0.148    24.202     7.307
    10   6 C        2.869     0.258    22.677     7.806
    11   6 C        2.989     0.001    27.986     8.678
    12   6 C        2.919    -0.028    28.700     8.785
    13   6 C        2.919    -0.028    28.694     8.784
    14   6 C        2.920    -0.029    28.726     8.789
    15   1 H        0.926     0.035     2.511     2.478
    16   1 H        0.926     0.039     2.466     2.456
    17   1 H        0.860     0.168     1.286     1.777
    18   8 O        0.857    -0.488    23.524     6.503
    19   1 H        0.926     0.035     2.510     2.477
    20   1 H        0.926     0.036     2.503     2.474
    21   1 H        0.926     0.035     2.521     2.483
    22   1 H        0.926     0.029     2.604     2.524
    23   1 H        0.926     0.033     2.548     2.496
    24   1 H        0.860     0.172     1.261     1.759

Wiberg/Mayer (AO) data.
largest (>0.10) Wiberg bond orders for each atom

     #   Z sym  total        # sym  WBO       # sym  WBO       # sym  WBO
 ---------------------------------------------------------------------------
     1   7 N    3.392 --     2 C    1.283    24 H    0.949     7 H    0.896
     2   6 C    3.969 --     5 C    1.472     1 N    1.283     3 C    1.005
     3   6 C    3.989 --     6 C    1.404     4 C    1.401     2 C    1.005
                            14 C    0.110
     4   6 C    3.989 --    13 C    1.445     3 C    1.401    16 H    0.970
                            12 C    0.112
     5   6 C    3.967 --     2 C    1.472     8 C    1.153    10 C    1.071
     6   6 C    3.992 --    12 C    1.444     3 C    1.404    15 H    0.970
                            13 C    0.112
     7   1 H    0.948 --     1 N    0.896
     8   6 C    3.980 --    11 C    1.701     5 C    1.153    22 H    0.972
     9   7 N    3.510 --    10 C    1.177    11 C    1.125    17 H    0.943
                            18 O    0.144
    10   6 C    3.950 --    18 O    1.573     9 N    1.177     5 C    1.071
    11   6 C    3.950 --     8 C    1.701     9 N    1.125    23 H    0.970
    12   6 C    3.991 --     6 C    1.444    14 C    1.439    19 H    0.970
                             4 C    0.112
    13   6 C    3.991 --     4 C    1.445    14 C    1.438    20 H    0.970
                             6 C    0.112
    14   6 C    3.991 --    12 C    1.439    13 C    1.438    21 H    0.971
                             3 C    0.110
    15   1 H    0.999 --     6 C    0.970
    16   1 H    0.998 --     4 C    0.970
    17   1 H    0.971 --     9 N    0.943
    18   8 O    1.970 --    10 C    1.573     9 N    0.144
    19   1 H    0.998 --    12 C    0.970
    20   1 H    0.998 --    13 C    0.970
    21   1 H    0.998 --    14 C    0.971
    22   1 H    0.999 --     8 C    0.972
    23   1 H    0.998 --    11 C    0.970
    24   1 H    0.969 --     1 N    0.949
 ---------------------------------------------------------------------------

molecular dipole:
                 x           y           z       tot (Debye)
 q only:       -0.567      -0.957      -0.436
   full:       -0.518      -0.781      -0.627       2.867

           -------------------------------------------------
          | TOTAL ENERGY              -38.550681924543 Eh   |
          | GRADIENT NORM               0.000341121293 Eh/α |
          | HOMO-LUMO GAP               2.444530742192 eV   |
           -------------------------------------------------

 * finished run on 2023/11/18 at 08:44:34.430
