   * xtb version 6.5.0 (97a52f5) compiled by 'conda@d2599ee0d4f4' on 2022-05-15
          program call               : /home/liuchw/anaconda3/envs/xtbenv/bin/xtb --gfn 2 --chrg 0 --uhf 0 7_11_Index_0-opt-2-3-223_preQMOPTprefit_xyzformat.xyz --opt --input xtb-opt-2-3-223_constr.txt

   ID    Z sym.   atoms
    1    7 N      1, 9
    2    6 C      2-6, 8, 10-14
    3    1 H      7, 15-17, 19-24
    4    8 O      18
constraining angle 1 2 3 4 to  223.1085777°, actual value: -136.8914223°
constraining angle 24 1 2 3 to   28.0294622°, actual value:   28.0294622°
constraining angle 24 1 2 5 to  203.9876970°, actual value: -156.0123030°
constraining angle 7 1 2 3 to  173.0246568°, actual value:  173.0246568°
constraining angle 7 1 2 5 to  348.9828916°, actual value:  -11.0171084°
constraining angle 1 2 5 8 to  188.0287658°, actual value: -171.9712342°

          :  Hamiltonian                  GFN2-xTB          :
 * total energy  :   -38.5437468 Eh     change       -0.4707061E-09 Eh
 * total energy  :   -38.5521201 Eh     change       -0.8373271E-02 Eh
 * total energy  :   -38.5529752 Eh     change       -0.8551207E-03 Eh
 * total energy  :   -38.5524239 Eh     change        0.5513710E-03 Eh
 * total energy  :   -38.5533662 Eh     change       -0.9423459E-03 Eh
 * total energy  :   -38.5534025 Eh     change       -0.3626569E-04 Eh
 * total energy  :   -38.5534309 Eh     change       -0.2842583E-04 Eh
 * total energy  :   -38.5534373 Eh     change       -0.6400873E-05 Eh
 * total energy  :   -38.5534437 Eh     change       -0.6385215E-05 Eh
 * total energy  :   -38.5534461 Eh     change       -0.2421616E-05 Eh
 * total energy  :   -38.5534488 Eh     change       -0.2717043E-05 Eh
 * total energy  :   -38.5534499 Eh     change       -0.1051145E-05 Eh
   *** GEOMETRY OPTIMIZATION CONVERGED AFTER 12 ITERATIONS ***

 final structure:
================
24
 xtb: 6.5.0 (97a52f5)
N            2.06985894202603       -0.41897409814117       -0.06852821371875
C            0.74303291937611       -0.15772570495335       -0.02431099043676
C           -0.17929506802390       -1.27139744508320       -0.29002163110506
C           -1.29878801267059       -1.09741445037004       -1.10027497086906
C            0.30905590928212        1.09256459716737        0.34270965471545
C            0.08517295571652       -2.53225726382239        0.24125305180481
H            2.65672790612475        0.41232833696094        0.01225962771121
C           -1.01086786702435        1.59495559752737        0.61818164493395
N            0.43063957246491        3.29530123515825        0.80204942843295
C            1.22255870199689        2.22273931371623        0.49643812941006
C           -0.89646916004019        2.90886014642408        0.89282359635439
C           -0.76976936988165       -3.58921624572172       -0.00946690838463
C           -2.14610591097054       -2.15979719226301       -1.35519049398828
C           -1.88708775422374       -3.40574970930189       -0.80752899444954
H            0.95135015961019       -2.66942280681855        0.87199771049292
H           -1.48877604694346       -0.13018522662492       -1.54037576029988
H            0.77967240095675        4.22092995754149        0.98533575855005
O            2.44502737941592        2.25694332898266        0.35876390958226
H           -0.56389160943321       -4.55961458946493        0.41804059543130
H           -3.01042552851581       -2.01702044237844       -1.98711443723708
H           -2.55264443548654       -4.23293752710627       -1.00509830464541
H           -1.91084055558140        1.01321303232847        0.62763427434942
H           -1.65224846155766        3.62551093956267        1.15125137532798
H            2.39849892338137       -1.16422379331873       -0.65998707196269

          :  Hamiltonian                  GFN2-xTB          :
         :: total energy             -38.553449869228 Eh    ::
         :: gradient norm              0.000962629563 Eh/a0 ::
         :: HOMO-LUMO gap              2.135687804099 eV    ::
         :: SCC energy               -39.184607964284 Eh    ::
         :: -> dispersion             -0.023861333509 Eh    ::
         :: repulsion energy           0.631101065455 Eh    ::

    * Orbital Energies and Occupations

         #    Occupation            Energy/Eh            Energy/eV
      -------------------------------------------------------------
         1        2.0000           -0.6782350             -18.4557
       ...           ...                  ...                  ...
        23        2.0000           -0.4834038             -13.1541
        24        2.0000           -0.4753427             -12.9347
        25        2.0000           -0.4726370             -12.8611
        26        2.0000           -0.4656082             -12.6698
        27        2.0000           -0.4536122             -12.3434
        28        2.0000           -0.4508769             -12.2690
        29        2.0000           -0.4356111             -11.8536
        30        2.0000           -0.4309462             -11.7266
        31        2.0000           -0.4143053             -11.2738
        32        2.0000           -0.4112740             -11.1913
        33        2.0000           -0.3968141             -10.7979
        34        2.0000           -0.3768102             -10.2535
        35        2.0000           -0.3460335              -9.4160 (HOMO)
        36                         -0.2675484              -7.2804 (LUMO)
        37                         -0.2321422              -6.3169
        38                         -0.2179912              -5.9318
        39                         -0.1650286              -4.4907
        40                         -0.1156293              -3.1464
        41                         -0.0892358              -2.4282
        42                          0.0330120               0.8983
        43                          0.0437573               1.1907
        44                          0.0935388               2.5453
        45                          0.1175403               3.1984
        46                          0.1354924               3.6869
       ...                                ...                  ...
        66                          0.7429937              20.2179
      -------------------------------------------------------------
                  HL-Gap            0.0784851 Eh            2.1357 eV

     #   Z          covCN         q      C6AA      α(0)
     1   7 N        2.646    -0.244    26.371     7.627
     2   6 C        2.885     0.092    25.944     8.351
     3   6 C        2.978     0.005    27.908     8.666
     4   6 C        2.923    -0.030    28.749     8.793
     5   6 C        3.090    -0.074    29.723     8.936
     6   6 C        2.925    -0.033    28.810     8.802
     7   1 H        0.860     0.227     0.980     1.551
     8   6 C        2.982    -0.071    29.755     8.948
     9   7 N        2.776    -0.148    24.195     7.306
    10   6 C        2.872     0.257    22.691     7.809
    11   6 C        2.989     0.001    27.998     8.680
    12   6 C        2.918    -0.028    28.708     8.786
    13   6 C        2.919    -0.028    28.700     8.785
    14   6 C        2.920    -0.028    28.704     8.786
    15   1 H        0.926     0.040     2.455     2.450
    16   1 H        0.926     0.042     2.422     2.434
    17   1 H        0.860     0.168     1.286     1.776
    18   8 O        0.857    -0.488    23.515     6.502
    19   1 H        0.926     0.035     2.519     2.482
    20   1 H        0.926     0.035     2.512     2.478
    21   1 H        0.926     0.035     2.523     2.484
    22   1 H        0.926     0.031     2.570     2.507
    23   1 H        0.926     0.033     2.550     2.497
    24   1 H        0.860     0.172     1.264     1.761

Wiberg/Mayer (AO) data.
largest (>0.10) Wiberg bond orders for each atom

     #   Z sym  total        # sym  WBO       # sym  WBO       # sym  WBO
 ---------------------------------------------------------------------------
     1   7 N    3.389 --     2 C    1.278    24 H    0.948     7 H    0.893
     2   6 C    3.969 --     5 C    1.448     1 N    1.278     3 C    1.042
     3   6 C    3.989 --     4 C    1.387     6 C    1.386     2 C    1.042
                            14 C    0.105
     4   6 C    3.991 --    13 C    1.452     3 C    1.387    16 H    0.968
                            12 C    0.108
     5   6 C    3.969 --     2 C    1.448     8 C    1.161    10 C    1.074
     6   6 C    3.982 --    12 C    1.452     3 C    1.386    15 H    0.969
                            13 C    0.109
     7   1 H    0.948 --     1 N    0.893
     8   6 C    3.980 --    11 C    1.693     5 C    1.161    22 H    0.971
     9   7 N    3.511 --    10 C    1.177    11 C    1.127    17 H    0.943
                            18 O    0.142
    10   6 C    3.949 --    18 O    1.569     9 N    1.177     5 C    1.074
    11   6 C    3.943 --     8 C    1.693     9 N    1.127    23 H    0.970
    12   6 C    3.992 --     6 C    1.452    14 C    1.434    19 H    0.970
                             4 C    0.108
    13   6 C    3.992 --     4 C    1.452    14 C    1.434    20 H    0.970
                             6 C    0.109
    14   6 C    3.984 --    12 C    1.434    13 C    1.434    21 H    0.971
                             3 C    0.105
    15   1 H    0.998 --     6 C    0.969
    16   1 H    0.998 --     4 C    0.968
    17   1 H    0.971 --     9 N    0.943
    18   8 O    1.968 --    10 C    1.569     9 N    0.142
    19   1 H    0.998 --    12 C    0.970
    20   1 H    0.998 --    13 C    0.970
    21   1 H    0.998 --    14 C    0.971
    22   1 H    0.999 --     8 C    0.971
    23   1 H    0.998 --    11 C    0.970
    24   1 H    0.969 --     1 N    0.948
 ---------------------------------------------------------------------------

molecular dipole:
                 x           y           z       tot (Debye)
 q only:       -0.697      -0.923      -0.271
   full:       -0.808      -0.706      -0.344       2.864

           -------------------------------------------------
          | TOTAL ENERGY              -38.553449869228 Eh   |
          | GRADIENT NORM               0.000962629563 Eh/α |
          | HOMO-LUMO GAP               2.135687804099 eV   |
           -------------------------------------------------

 * finished run on 2023/11/18 at 08:41:13.579
