   * xtb version 6.5.0 (97a52f5) compiled by 'conda@d2599ee0d4f4' on 2022-05-15
          program call               : /home/liuchw/anaconda3/envs/xtbenv/bin/xtb --gfn 2 --chrg 0 --uhf 0 7_11_Index_0-opt-2-3-313_preQMOPTprefit_xyzformat.xyz --opt --input xtb-opt-2-3-313_constr.txt

   ID    Z sym.   atoms
    1    7 N      1, 9
    2    6 C      2-6, 8, 10-14
    3    1 H      7, 15-17, 19-24
    4    8 O      18
constraining angle 1 2 3 4 to  312.8340881°, actual value:  -47.1659119°
constraining angle 24 1 2 3 to   27.9607609°, actual value:   27.9607609°
constraining angle 24 1 2 5 to  204.0215779°, actual value: -155.9784221°
constraining angle 7 1 2 3 to  172.9805315°, actual value:  172.9805315°
constraining angle 7 1 2 5 to  349.0413484°, actual value:  -10.9586516°
constraining angle 1 2 5 8 to  187.9665985°, actual value: -172.0334015°

          :  Hamiltonian                  GFN2-xTB          :
 * total energy  :   -38.5419817 Eh     change       -0.1967130E-08 Eh
 * total energy  :   -38.5505092 Eh     change       -0.8527513E-02 Eh
 * total energy  :   -38.5512750 Eh     change       -0.7657551E-03 Eh
 * total energy  :   -38.5504507 Eh     change        0.8243200E-03 Eh
 * total energy  :   -38.5515705 Eh     change       -0.1119857E-02 Eh
 * total energy  :   -38.5516036 Eh     change       -0.3302518E-04 Eh
 * total energy  :   -38.5516343 Eh     change       -0.3069337E-04 Eh
 * total energy  :   -38.5516496 Eh     change       -0.1532345E-04 Eh
 * total energy  :   -38.5516614 Eh     change       -0.1185446E-04 Eh
 * total energy  :   -38.5516669 Eh     change       -0.5438346E-05 Eh
 * total energy  :   -38.5516695 Eh     change       -0.2648689E-05 Eh
 * total energy  :   -38.5516704 Eh     change       -0.8846253E-06 Eh
   *** GEOMETRY OPTIMIZATION CONVERGED AFTER 12 ITERATIONS ***

 final structure:
================
24
 xtb: 6.5.0 (97a52f5)
N            1.76936724332487       -0.02268649001148       -1.10712458857407
C            0.60010297350739        0.00894793887795       -0.43006488893569
C           -0.27030135329774       -1.17503344814094       -0.53087402360995
C           -0.53728424410047       -1.74703345019756       -1.77356297359401
C            0.31355682373665        1.08662763212916        0.37443762655842
C           -0.78129342813522       -1.78596490187198        0.61224399978482
H            2.27863982498886        0.86301502402951       -1.09452731037860
C           -0.75272817040793        1.33011954453962        1.31020638780222
N            0.58597268632110        3.12116429908908        1.31068784802960
C            1.17011369683801        2.27113635321640        0.41304752736570
C           -0.55782049603258        2.55195319613791        1.84333125327648
C           -1.56333936959707       -2.92127638560972        0.50958839150838
C           -1.32732223407309       -2.87705683418186       -1.87336232690834
C           -1.84375240973297       -3.46716982457839       -0.73215720226169
H           -0.53536911720196       -1.38354781272608        1.58229071412803
H           -0.15865162006375       -1.28281248390075       -2.67397980665244
H            0.95471817727464        4.02484127681732        1.55441188191684
O            2.19977151226686        2.50815475773043       -0.21908536364470
H           -1.95047407330474       -3.38743706370433        1.40372833834691
H           -1.53755648132995       -3.30080258070161       -2.84444776705299
H           -2.45700762981289       -4.35248403216413       -0.81019111601117
H           -1.57573630679182        0.67475407025190        1.51199570522683
H           -1.13617409106813        3.08171286662381        2.57570194361410
H            1.83695508669120       -0.58170868165291       -1.94145425993515

          :  Hamiltonian                  GFN2-xTB          :
         :: total energy             -38.551670409886 Eh    ::
         :: gradient norm              0.000288305406 Eh/a0 ::
         :: HOMO-LUMO gap              2.125255034187 eV    ::
         :: SCC energy               -39.182235717039 Eh    ::
         :: -> dispersion             -0.023820786783 Eh    ::
         :: repulsion energy           0.630511593693 Eh    ::

    * Orbital Energies and Occupations

         #    Occupation            Energy/Eh            Energy/eV
      -------------------------------------------------------------
         1        2.0000           -0.6780301             -18.4501
       ...           ...                  ...                  ...
        23        2.0000           -0.4841419             -13.1742
        24        2.0000           -0.4748747             -12.9220
        25        2.0000           -0.4730359             -12.8720
        26        2.0000           -0.4654842             -12.6665
        27        2.0000           -0.4526517             -12.3173
        28        2.0000           -0.4509181             -12.2701
        29        2.0000           -0.4371965             -11.8967
        30        2.0000           -0.4311196             -11.7314
        31        2.0000           -0.4154515             -11.3050
        32        2.0000           -0.4134149             -11.2496
        33        2.0000           -0.3962899             -10.7836
        34        2.0000           -0.3762437             -10.2381
        35        2.0000           -0.3456699              -9.4062 (HOMO)
        36                         -0.2675682              -7.2809 (LUMO)
        37                         -0.2333409              -6.3495
        38                         -0.2185967              -5.9483
        39                         -0.1647882              -4.4841
        40                         -0.1150949              -3.1319
        41                         -0.0916967              -2.4952
        42                          0.0310279               0.8443
        43                          0.0414087               1.1268
        44                          0.0916633               2.4943
        45                          0.1141253               3.1055
        46                          0.1344866               3.6596
       ...                                ...                  ...
        66                          0.7414211              20.1751
      -------------------------------------------------------------
                  HL-Gap            0.0781017 Eh            2.1253 eV

     #   Z          covCN         q      C6AA      α(0)
     1   7 N        2.647    -0.246    26.412     7.633
     2   6 C        2.884     0.093    25.934     8.349
     3   6 C        2.976     0.007    27.860     8.658
     4   6 C        2.925    -0.032    28.795     8.800
     5   6 C        3.086    -0.074    29.744     8.940
     6   6 C        2.924    -0.028    28.713     8.787
     7   1 H        0.860     0.228     0.975     1.547
     8   6 C        2.983    -0.072    29.777     8.951
     9   7 N        2.775    -0.147    24.183     7.304
    10   6 C        2.875     0.256    22.700     7.810
    11   6 C        2.989     0.001    28.001     8.680
    12   6 C        2.919    -0.027    28.681     8.782
    13   6 C        2.918    -0.028    28.710     8.787
    14   6 C        2.920    -0.028    28.694     8.784
    15   1 H        0.926     0.046     2.375     2.410
    16   1 H        0.925     0.030     2.593     2.518
    17   1 H        0.860     0.168     1.284     1.775
    18   8 O        0.857    -0.488    23.531     6.504
    19   1 H        0.926     0.036     2.496     2.471
    20   1 H        0.926     0.035     2.522     2.484
    21   1 H        0.926     0.035     2.513     2.479
    22   1 H        0.926     0.032     2.564     2.504
    23   1 H        0.926     0.032     2.551     2.498
    24   1 H        0.860     0.173     1.256     1.756

Wiberg/Mayer (AO) data.
largest (>0.10) Wiberg bond orders for each atom

     #   Z sym  total        # sym  WBO       # sym  WBO       # sym  WBO
 ---------------------------------------------------------------------------
     1   7 N    3.391 --     2 C    1.286    24 H    0.943     7 H    0.889
     2   6 C    3.969 --     5 C    1.446     1 N    1.286     3 C    1.038
     3   6 C    3.989 --     4 C    1.389     6 C    1.385     2 C    1.038
                            14 C    0.105
     4   6 C    3.983 --    13 C    1.450     3 C    1.389    16 H    0.967
                            12 C    0.108
     5   6 C    3.968 --     2 C    1.446     8 C    1.162    10 C    1.076
     6   6 C    3.986 --    12 C    1.452     3 C    1.385    15 H    0.967
                            13 C    0.109
     7   1 H    0.947 --     1 N    0.889
     8   6 C    3.979 --    11 C    1.691     5 C    1.162    22 H    0.970
     9   7 N    3.512 --    10 C    1.178    11 C    1.128    17 H    0.943
                            18 O    0.141
    10   6 C    3.949 --    18 O    1.566     9 N    1.178     5 C    1.076
    11   6 C    3.943 --     8 C    1.691     9 N    1.128    23 H    0.970
    12   6 C    3.992 --     6 C    1.452    14 C    1.434    19 H    0.970
                             4 C    0.108
    13   6 C    3.992 --     4 C    1.450    14 C    1.435    20 H    0.971
                             6 C    0.109
    14   6 C    3.984 --    13 C    1.435    12 C    1.434    21 H    0.971
                             3 C    0.105
    15   1 H    0.998 --     6 C    0.967
    16   1 H    0.999 --     4 C    0.967
    17   1 H    0.971 --     9 N    0.943
    18   8 O    1.963 --    10 C    1.566     9 N    0.141
    19   1 H    0.998 --    12 C    0.970
    20   1 H    0.998 --    13 C    0.971
    21   1 H    0.998 --    14 C    0.971
    22   1 H    0.999 --     8 C    0.970
    23   1 H    0.998 --    11 C    0.970
    24   1 H    0.969 --     1 N    0.943
 ---------------------------------------------------------------------------

molecular dipole:
                 x           y           z       tot (Debye)
 q only:       -0.701      -0.969      -0.090
   full:       -0.854      -0.752      -0.088       2.900

           -------------------------------------------------
          | TOTAL ENERGY              -38.551670409886 Eh   |
          | GRADIENT NORM               0.000288305406 Eh/α |
          | HOMO-LUMO GAP               2.125255034187 eV   |
           -------------------------------------------------

 * finished run on 2023/11/18 at 08:42:02.358
