   * xtb version 6.5.0 (97a52f5) compiled by 'conda@d2599ee0d4f4' on 2022-05-15
          program call               : /home/liuchw/anaconda3/envs/xtbenv/bin/xtb --gfn 2 --chrg 0 --uhf 0 7_11_Index_0-opt-2-3-193_preQMOPTprefit_xyzformat.xyz --opt --input xtb-opt-2-3-193_constr.txt

   ID    Z sym.   atoms
    1    7 N      1, 9
    2    6 C      2-6, 8, 10-14
    3    1 H      7, 15-17, 19-24
    4    8 O      18
constraining angle 1 2 3 4 to  193.2790971°, actual value: -166.7209029°
constraining angle 24 1 2 3 to   28.0635785°, actual value:   28.0635785°
constraining angle 24 1 2 5 to  203.9782404°, actual value: -156.0217596°
constraining angle 7 1 2 3 to  173.0412083°, actual value:  173.0412083°
constraining angle 7 1 2 5 to  348.9558701°, actual value:  -11.0441299°
constraining angle 1 2 5 8 to  188.1094394°, actual value: -171.8905606°

          :  Hamiltonian                  GFN2-xTB          :
 * total energy  :   -38.5375064 Eh     change       -0.1377316E-08 Eh
 * total energy  :   -38.5476204 Eh     change       -0.1011403E-01 Eh
 * total energy  :   -38.5489368 Eh     change       -0.1316387E-02 Eh
 * total energy  :   -38.5482827 Eh     change        0.6541265E-03 Eh
 * total energy  :   -38.5492079 Eh     change       -0.9251997E-03 Eh
 * total energy  :   -38.5492409 Eh     change       -0.3304447E-04 Eh
 * total energy  :   -38.5492881 Eh     change       -0.4716716E-04 Eh
 * total energy  :   -38.5492981 Eh     change       -0.1001472E-04 Eh
 * total energy  :   -38.5493119 Eh     change       -0.1381434E-04 Eh
 * total energy  :   -38.5493153 Eh     change       -0.3381257E-05 Eh
 * total energy  :   -38.5493173 Eh     change       -0.1973651E-05 Eh
 * total energy  :   -38.5493179 Eh     change       -0.6358170E-06 Eh
   *** GEOMETRY OPTIMIZATION CONVERGED AFTER 12 ITERATIONS ***

 final structure:
================
24
 xtb: 6.5.0 (97a52f5)
N            1.99305602397351       -0.45266708597214        0.28139654473770
C            0.68236116050953       -0.17383507331708        0.08707256706078
C           -0.18523719307152       -1.29202849146799       -0.30924190343794
C           -1.47719204507045       -1.10386816284568       -0.80310660449365
C            0.25991801887353        1.11498031797245        0.36293688346487
C            0.23259354612553       -2.60567858429521       -0.06688524301266
H            2.57499658071161        0.37259632947583        0.44553456118310
C           -1.03507705510678        1.73983675251402        0.42697056387171
N            0.49847649270024        3.34553236228708        0.66136585478048
C            1.22920870715500        2.19575342057141        0.55958069363566
C           -0.85282847814730        3.06193716914148        0.61790765589318
C           -0.59087986799727       -3.67983280460101       -0.34246613006864
C           -2.29845598647382       -2.18029242955439       -1.07999979950479
C           -1.86355632452770       -3.47393449116726       -0.84752625811406
H            1.20019505558437       -2.79461899402849        0.37341861216368
H           -1.81196486810099       -0.11219906923032       -1.05383976415856
H            0.90133131468827        4.25286820364697        0.82426334433888
O            2.46106086632757        2.14937382131415        0.59364617933264
H           -0.24184820067705       -4.68355551387384       -0.14837324026266
H           -3.28824489947830       -2.00666624319853       -1.47624390927671
H           -2.50959714094130       -4.31336578908231       -1.05671524633015
H           -1.98559741207595        1.24742195463056        0.41983149775243
H           -1.57831186539439        3.84487989397331        0.72683984673435
H            2.40997957041360       -1.21522750289323       -0.22552570628952

          :  Hamiltonian                  GFN2-xTB          :
         :: total energy             -38.549317913039 Eh    ::
         :: gradient norm              0.000378160206 Eh/a0 ::
         :: HOMO-LUMO gap              1.931098405090 eV    ::
         :: SCC energy               -39.176641295441 Eh    ::
         :: -> dispersion             -0.023771577485 Eh    ::
         :: repulsion energy           0.627283463557 Eh    ::

    * Orbital Energies and Occupations

         #    Occupation            Energy/Eh            Energy/eV
      -------------------------------------------------------------
         1        2.0000           -0.6798366             -18.4993
       ...           ...                  ...                  ...
        23        2.0000           -0.4824524             -13.1282
        24        2.0000           -0.4758477             -12.9485
        25        2.0000           -0.4716431             -12.8341
        26        2.0000           -0.4657854             -12.6747
        27        2.0000           -0.4539452             -12.3525
        28        2.0000           -0.4519239             -12.2975
        29        2.0000           -0.4370130             -11.8917
        30        2.0000           -0.4278876             -11.6434
        31        2.0000           -0.4137891             -11.2598
        32        2.0000           -0.4111338             -11.1875
        33        2.0000           -0.3962533             -10.7826
        34        2.0000           -0.3785837             -10.3018
        35        2.0000           -0.3458613              -9.4114 (HOMO)
        36                         -0.2748947              -7.4803 (LUMO)
        37                         -0.2315693              -6.3013
        38                         -0.2097506              -5.7076
        39                         -0.1663103              -4.5255
        40                         -0.1202083              -3.2710
        41                         -0.0811612              -2.2085
        42                          0.0315538               0.8586
        43                          0.0410328               1.1166
        44                          0.0923831               2.5139
        45                          0.1133797               3.0852
        46                          0.1336674               3.6373
       ...                                ...                  ...
        66                          0.7348889              19.9973
      -------------------------------------------------------------
                  HL-Gap            0.0709666 Eh            1.9311 eV

     #   Z          covCN         q      C6AA      α(0)
     1   7 N        2.650    -0.251    26.543     7.652
     2   6 C        2.884     0.092    25.952     8.352
     3   6 C        2.972     0.004    27.934     8.669
     4   6 C        2.924    -0.032    28.797     8.800
     5   6 C        3.079    -0.073    29.720     8.938
     6   6 C        2.927    -0.033    28.830     8.805
     7   1 H        0.859     0.231     0.960     1.535
     8   6 C        2.989    -0.072    29.798     8.954
     9   7 N        2.774    -0.145    24.141     7.297
    10   6 C        2.882     0.255    22.728     7.816
    11   6 C        2.987    -0.000    28.025     8.684
    12   6 C        2.918    -0.029    28.719     8.788
    13   6 C        2.918    -0.028    28.703     8.786
    14   6 C        2.919    -0.027    28.677     8.782
    15   1 H        0.926     0.038     2.470     2.457
    16   1 H        0.926     0.049     2.335     2.389
    17   1 H        0.860     0.169     1.278     1.771
    18   8 O        0.857    -0.488    23.524     6.503
    19   1 H        0.926     0.034     2.532     2.489
    20   1 H        0.926     0.035     2.519     2.482
    21   1 H        0.926     0.035     2.522     2.483
    22   1 H        0.926     0.034     2.534     2.489
    23   1 H        0.926     0.033     2.545     2.495
    24   1 H        0.860     0.171     1.265     1.762

Wiberg/Mayer (AO) data.
largest (>0.10) Wiberg bond orders for each atom

     #   Z sym  total        # sym  WBO       # sym  WBO       # sym  WBO
 ---------------------------------------------------------------------------
     1   7 N    3.391 --     2 C    1.286    24 H    0.943     7 H    0.877
     2   6 C    3.968 --     5 C    1.419     1 N    1.286     3 C    1.067
     3   6 C    3.988 --     4 C    1.377     6 C    1.371     2 C    1.067
                            14 C    0.101
     4   6 C    3.984 --    13 C    1.457     3 C    1.377    16 H    0.961
                            12 C    0.105
     5   6 C    3.968 --     2 C    1.419     8 C    1.172    10 C    1.079
     6   6 C    3.977 --    12 C    1.459     3 C    1.371    15 H    0.965
                            13 C    0.106
     7   1 H    0.946 --     1 N    0.877
     8   6 C    3.978 --    11 C    1.680     5 C    1.172    22 H    0.965
     9   7 N    3.514 --    10 C    1.180    11 C    1.132    17 H    0.942
                            18 O    0.137
    10   6 C    3.947 --    18 O    1.555     9 N    1.180     5 C    1.079
    11   6 C    3.938 --     8 C    1.680     9 N    1.132    23 H    0.970
    12   6 C    3.992 --     6 C    1.459    14 C    1.429    19 H    0.971
                             4 C    0.105
    13   6 C    3.992 --     4 C    1.457    14 C    1.432    20 H    0.971
                             6 C    0.106
    14   6 C    3.978 --    13 C    1.432    12 C    1.429    21 H    0.971
                             3 C    0.101
    15   1 H    0.999 --     6 C    0.965
    16   1 H    0.998 --     4 C    0.961
    17   1 H    0.971 --     9 N    0.942
    18   8 O    1.965 --    10 C    1.555     9 N    0.137
    19   1 H    0.998 --    12 C    0.971
    20   1 H    0.998 --    13 C    0.971
    21   1 H    0.998 --    14 C    0.971
    22   1 H    0.999 --     8 C    0.965
    23   1 H    0.998 --    11 C    0.970
    24   1 H    0.969 --     1 N    0.943
 ---------------------------------------------------------------------------

molecular dipole:
                 x           y           z       tot (Debye)
 q only:       -0.722      -0.816      -0.306
   full:       -0.797      -0.605      -0.405       2.743

           -------------------------------------------------
          | TOTAL ENERGY              -38.549317913039 Eh   |
          | GRADIENT NORM               0.000378160206 Eh/α |
          | HOMO-LUMO GAP               1.931098405090 eV   |
           -------------------------------------------------

 * finished run on 2023/11/18 at 08:43:13.226
