   * xtb version 6.5.0 (97a52f5) compiled by 'conda@d2599ee0d4f4' on 2022-05-15
          program call               : /home/liuchw/anaconda3/envs/xtbenv/bin/xtb --gfn 2 --chrg 0 --uhf 0 7_11_Index_0-opt-2-3-253_preQMOPTprefit_xyzformat.xyz --opt --input xtb-opt-2-3-253_constr.txt

   ID    Z sym.   atoms
    1    7 N      1, 9
    2    6 C      2-6, 8, 10-14
    3    1 H      7, 15-17, 19-24
    4    8 O      18
constraining angle 1 2 3 4 to  253.0088112°, actual value: -106.9911888°
constraining angle 24 1 2 3 to   28.0042136°, actual value:   28.0042136°
constraining angle 24 1 2 5 to  204.0000648°, actual value: -155.9999352°
constraining angle 7 1 2 3 to  173.0072884°, actual value:  173.0072884°
constraining angle 7 1 2 5 to  349.0031395°, actual value:  -10.9968605°
constraining angle 1 2 5 8 to  188.0023084°, actual value: -171.9976916°

          :  Hamiltonian                  GFN2-xTB          :
 * total energy  :   -38.5420410 Eh     change       -0.3269392E-08 Eh
 * total energy  :   -38.5496951 Eh     change       -0.7654110E-02 Eh
 * total energy  :   -38.5501407 Eh     change       -0.4455873E-03 Eh
 * total energy  :   -38.5499658 Eh     change        0.1748529E-03 Eh
 * total energy  :   -38.5506214 Eh     change       -0.6555531E-03 Eh
 * total energy  :   -38.5506561 Eh     change       -0.3471373E-04 Eh
 * total energy  :   -38.5506821 Eh     change       -0.2602658E-04 Eh
 * total energy  :   -38.5506844 Eh     change       -0.2308737E-05 Eh
 * total energy  :   -38.5506862 Eh     change       -0.1817295E-05 Eh
 * total energy  :   -38.5506870 Eh     change       -0.7392932E-06 Eh
   *** GEOMETRY OPTIMIZATION CONVERGED AFTER 10 ITERATIONS ***

 final structure:
================
24
 xtb: 6.5.0 (97a52f5)
N            2.05160421998995       -0.32618917073199       -0.44905259992805
C            0.74563340926901       -0.11237059393045       -0.17472390457746
C           -0.19111193275466       -1.24216789224119       -0.36711922437098
C           -1.07640267260565       -1.24550946756831       -1.43862336420975
C            0.33302459418179        1.08521787451803        0.34112086696736
C           -0.15072495931466       -2.33430330628051        0.49193129615608
H            2.62447561258098        0.51716097193661       -0.40542791233820
C           -0.95161156041986        1.49076767705668        0.84913218114568
N            0.43771802209786        3.23973001499892        0.98281306719535
C            1.21588134788054        2.24287231769047        0.46153472226152
C           -0.84824686932871        2.77995958419770        1.22269471124189
C           -1.00570515675399       -3.40393465195753        0.29567007271726
C           -1.92729278818432       -2.31900929207187       -1.63354879477963
C           -1.89413102456477       -3.39844306558518       -0.76679045801145
H            0.54545013551478       -2.33291996857228        1.31747508469282
H           -1.10105707817025       -0.39934828856352       -2.10981111316080
H            0.77027266280238        4.16571062146364        1.19270543365878
O            2.40077609042602        2.34804622243597        0.14953941937420
H           -0.97625164412744       -4.24578074817569        0.97157330792490
H           -2.61538686461421       -2.31435347471952       -2.46602260100708
H           -2.55909937532342       -4.23542782325877       -0.92010198452623
H           -1.81874143598200        0.86372710164515        0.91051913027597
H           -1.58360021903603        3.43370923837645        1.65099394728178
H            2.29891448643669       -1.01973187066286       -1.13563928398396

          :  Hamiltonian                  GFN2-xTB          :
         :: total energy             -38.550686962748 Eh    ::
         :: gradient norm              0.000818304852 Eh/a0 ::
         :: HOMO-LUMO gap              2.439502880254 eV    ::
         :: SCC energy               -39.183631375773 Eh    ::
         :: -> dispersion             -0.023754063456 Eh    ::
         :: repulsion energy           0.632839420987 Eh    ::

    * Orbital Energies and Occupations

         #    Occupation            Energy/Eh            Energy/eV
      -------------------------------------------------------------
         1        2.0000           -0.6778079             -18.4441
       ...           ...                  ...                  ...
        23        2.0000           -0.4839875             -13.1700
        24        2.0000           -0.4759344             -12.9508
        25        2.0000           -0.4734651             -12.8836
        26        2.0000           -0.4651459             -12.6573
        27        2.0000           -0.4530212             -12.3273
        28        2.0000           -0.4504329             -12.2569
        29        2.0000           -0.4347757             -11.8308
        30        2.0000           -0.4314674             -11.7408
        31        2.0000           -0.4145489             -11.2804
        32        2.0000           -0.4111868             -11.1890
        33        2.0000           -0.3973431             -10.8123
        34        2.0000           -0.3759733             -10.2308
        35        2.0000           -0.3464138              -9.4264 (HOMO)
        36                         -0.2567637              -6.9869 (LUMO)
        37                         -0.2326146              -6.3298
        38                         -0.2313133              -6.2944
        39                         -0.1644338              -4.4745
        40                         -0.1100909              -2.9957
        41                         -0.1006260              -2.7382
        42                          0.0323257               0.8796
        43                          0.0448603               1.2207
        44                          0.0861904               2.3454
        45                          0.1185809               3.2268
        46                          0.1346157               3.6631
       ...                                ...                  ...
        66                          0.7450538              20.2739
      -------------------------------------------------------------
                  HL-Gap            0.0896501 Eh            2.4395 eV

     #   Z          covCN         q      C6AA      α(0)
     1   7 N        2.645    -0.240    26.283     7.614
     2   6 C        2.885     0.094    25.917     8.346
     3   6 C        2.979     0.006    27.872     8.660
     4   6 C        2.924    -0.031    28.769     8.796
     5   6 C        3.093    -0.075    29.747     8.939
     6   6 C        2.924    -0.030    28.748     8.793
     7   1 H        0.860     0.226     0.982     1.552
     8   6 C        2.980    -0.070    29.727     8.944
     9   7 N        2.776    -0.148    24.203     7.307
    10   6 C        2.868     0.258    22.677     7.806
    11   6 C        2.989     0.001    27.986     8.678
    12   6 C        2.919    -0.028    28.694     8.784
    13   6 C        2.919    -0.028    28.700     8.785
    14   6 C        2.920    -0.029    28.726     8.789
    15   1 H        0.926     0.039     2.464     2.455
    16   1 H        0.926     0.035     2.511     2.478
    17   1 H        0.860     0.168     1.287     1.777
    18   8 O        0.857    -0.488    23.524     6.503
    19   1 H        0.926     0.036     2.503     2.474
    20   1 H        0.926     0.036     2.509     2.477
    21   1 H        0.926     0.035     2.521     2.483
    22   1 H        0.926     0.029     2.602     2.522
    23   1 H        0.926     0.033     2.549     2.497
    24   1 H        0.860     0.172     1.262     1.760

Wiberg/Mayer (AO) data.
largest (>0.10) Wiberg bond orders for each atom

     #   Z sym  total        # sym  WBO       # sym  WBO       # sym  WBO
 ---------------------------------------------------------------------------
     1   7 N    3.391 --     2 C    1.282    24 H    0.949     7 H    0.896
     2   6 C    3.969 --     5 C    1.473     1 N    1.282     3 C    1.006
     3   6 C    3.989 --     4 C    1.404     6 C    1.401     2 C    1.006
                            14 C    0.110
     4   6 C    3.992 --    13 C    1.444     3 C    1.404    16 H    0.970
                            12 C    0.112
     5   6 C    3.967 --     2 C    1.473     8 C    1.153    10 C    1.071
     6   6 C    3.989 --    12 C    1.445     3 C    1.401    15 H    0.970
                            13 C    0.112
     7   1 H    0.948 --     1 N    0.896
     8   6 C    3.980 --    11 C    1.701     5 C    1.153    22 H    0.972
     9   7 N    3.510 --    10 C    1.177    11 C    1.125    17 H    0.943
                            18 O    0.144
    10   6 C    3.950 --    18 O    1.573     9 N    1.177     5 C    1.071
    11   6 C    3.950 --     8 C    1.701     9 N    1.125    23 H    0.970
    12   6 C    3.991 --     6 C    1.445    14 C    1.438    19 H    0.970
                             4 C    0.112
    13   6 C    3.991 --     4 C    1.444    14 C    1.439    20 H    0.970
                             6 C    0.112
    14   6 C    3.991 --    13 C    1.439    12 C    1.438    21 H    0.971
                             3 C    0.110
    15   1 H    0.998 --     6 C    0.970
    16   1 H    0.999 --     4 C    0.970
    17   1 H    0.971 --     9 N    0.943
    18   8 O    1.969 --    10 C    1.573     9 N    0.144
    19   1 H    0.998 --    12 C    0.970
    20   1 H    0.998 --    13 C    0.970
    21   1 H    0.998 --    14 C    0.971
    22   1 H    0.999 --     8 C    0.972
    23   1 H    0.998 --    11 C    0.970
    24   1 H    0.969 --     1 N    0.949
 ---------------------------------------------------------------------------

molecular dipole:
                 x           y           z       tot (Debye)
 q only:       -0.671      -0.969      -0.224
   full:       -0.805      -0.746      -0.273       2.875

           -------------------------------------------------
          | TOTAL ENERGY              -38.550686962748 Eh   |
          | GRADIENT NORM               0.000818304852 Eh/α |
          | HOMO-LUMO GAP               2.439502880254 eV   |
           -------------------------------------------------

 * finished run on 2023/11/18 at 08:41:27.506
