                               Psi4 1.6 release

  ==> Input File <==

--------------------------------------------------------------------------
molecule {
0 1
 H   -1.681300   -0.100100   -2.921100
 N   -1.869500   -0.604800   -2.056000
 C   -0.690300   -0.693300   -1.276900
 C    0.545700   -0.746700   -1.926200
 C   -3.132000   -0.308900   -1.556000
 C   -0.699000   -0.876100    0.106100
 C   -3.569300    0.849600   -1.009400
 N   -3.522500    3.048500   -0.304000
 C   -4.889100    1.211400   -0.436900
 C   -2.710400    2.097600   -0.897300
 C   -4.787200    2.548300   -0.037000
 C    0.496400   -1.040200    0.823600
 C    1.741100   -0.912600   -1.209900
 C    1.746200   -1.050800    0.182500
 H   -1.635600   -0.881500    0.655300
 H    0.596700   -0.665300   -3.009300
 H   -3.205200    3.987900   -0.120200
 O   -1.565700    2.293500   -1.257500
 H    0.405700   -1.131600    1.901500
 H    2.653700   -0.969700   -1.794500
 H   -5.716000    0.600000   -0.350900
 H   -5.550900    3.089100    0.398200
 H    2.625400   -1.155400    0.712700
 H   -3.871600   -1.121300   -1.611700
}
set {
  geom_maxiter 400
  g_convergence GAU_LOOSE
  dynamic_level 1
}
geometric_keywords = {
 'coordsys' : 'tric',
 'convergence_cmax' : 1e0,
 'convergence_set' : 'GAU_LOOSE',
 'convergence_energy' : 1e-4,
}
memory 20GB
set_num_threads(5)
psi4_io.set_default_path("/scratch/liuchw/Psi4-1_16_Index_0-farH_in17")
basis {
assign 6-31G*
}
opt_finished = False
if not opt_finished:
    try:
        ener, opt_hist = optimize('mp2',engine='geometric',optimizer_keywords=geometric_keywords, return_history=True)
        opt_finished = len(opt_hist['energy']) < 400
    except Exception as e:
        core.print_out('Exception: %s'%(e))
if not opt_finished:
    try:
        optimize('mp2')
    except:
        set opt_coordinates both
        optimize('mp2')
    opt_finished = True
clean()
assert opt_finished

--------------------------------------------------------------------------

    Molecular point group: c1
  Charge       = 0
  Multiplicity = 1
  Basis Set: ANONYMOUSA08BCFA8
    Blend: 6-31G*
  Basis Set: (ANONYMOUSA08BCFA8 AUX)
    Blend: CC-PVDZ-JKFIT
  @DF-RHF Final Energy:  -606.08310814142851
    Total Energy =                       -606.0831081414285109
 Dipole X            :         -2.5127219            1.0769968           -1.4357251
 Dipole Y            :          3.3569811           -2.7547385            0.6022426
 Dipole Z            :         -1.2771964            1.6094163            0.3322199
 Magnitude           :                                                    1.5919713
  Basis Set: (ANONYMOUSA08BCFA8 AUX)
    Blend: CC-PVDZ-RI
    Molecular point group: c1
  Basis Set: ANONYMOUSA08BCFA8
    Blend: 6-31G*
  Basis Set: (ANONYMOUSA08BCFA8 AUX)
    Blend: CC-PVDZ-JKFIT
  Basis Set: (ANONYMOUSA08BCFA8 AUX)
    Blend: CC-PVDZ-JKFIT
	 Reference Energy          =    -606.0831081414285109 [Eh]
	 Singles Energy            =      -0.0000000000000000 [Eh]
	 Same-Spin Energy          =      -0.5252259367572383 [Eh]
	 Opposite-Spin Energy      =      -1.4250267200214179 [Eh]
	 Correlation Energy        =      -1.9502526567786562 [Eh]
	 Total Energy              =    -608.0333607982071271 [Eh]
	 SCS Total Energy          =    -607.9682155177066534 [Eh]
  @DF-RHF Final Energy:  -606.09050769865894
    Total Energy =                       -606.0905076986589393
  @DF-RHF Final Energy:  -606.09195721900142
    Total Energy =                       -606.0919572190014151
  @DF-RHF Final Energy:  -606.09390858337110
    Total Energy =                       -606.0939085833711033
  @DF-RHF Final Energy:  -606.09437144519882
    Total Energy =                       -606.0943714451987034
  @DF-RHF Final Energy:  -606.09617715943659
    Total Energy =                       -606.0961771594365928
  @DF-RHF Final Energy:  -606.09866933907051
    Total Energy =                       -606.0986693390705113
  @DF-RHF Final Energy:  -606.10099551209612
    Total Energy =                       -606.1009955120961195
  @DF-RHF Final Energy:  -606.09729608036071
    Total Energy =                       -606.0972960803607066
  @DF-RHF Final Energy:  -606.10811980732296
    Total Energy =                       -606.1081198073229643
  @DF-RHF Final Energy:  -606.11438083611677
    Total Energy =                       -606.1143808361167657
  @DF-RHF Final Energy:  -606.11852043048430
    Total Energy =                       -606.1185204304842955
  @DF-RHF Final Energy:  -606.11803435165382
    Total Energy =                       -606.1180343516538187
  @DF-RHF Final Energy:  -606.11959107120822
    Total Energy =                       -606.1195910712082195
  @DF-RHF Final Energy:  -606.12072814835687
    Total Energy =                       -606.1207281483568750
  @DF-RHF Final Energy:  -606.12178564458372
    Total Energy =                       -606.1217856445837242
  @DF-RHF Final Energy:  -606.12175412611111
    Total Energy =                       -606.1217541261111137
  @DF-RHF Final Energy:  -606.12198552883308
    Total Energy =                       -606.1219855288330791
  @DF-RHF Final Energy:  -606.12219370492767
    Total Energy =                       -606.1221937049276676
  @DF-RHF Final Energy:  -606.12227700039966
    Total Energy =                       -606.1222770003996629
  @DF-RHF Final Energy:  -606.12224238664817
    Total Energy =                       -606.1222423866481677
  @DF-RHF Final Energy:  -606.12230349272681
    Total Energy =                       -606.1223034927268145
  @DF-RHF Final Energy:  -606.12233909556710
    Total Energy =                       -606.1223390955670993
  Charge       = 0
  Multiplicity = 1
  Basis Set: ANONYMOUSA08BCFA8
    Blend: 6-31G*
  Basis Set: (ANONYMOUSA08BCFA8 AUX)
    Blend: CC-PVDZ-JKFIT

    Orbital Energies [Eh]
    ---------------------

    Doubly Occupied:

       1A    -20.515127     2A    -15.603227     3A    -15.595618
       4A    -11.342094     5A    -11.316226     6A    -11.291729
       7A    -11.269027     8A    -11.245520     9A    -11.244052
      10A    -11.240002    11A    -11.236931    12A    -11.233351
      13A    -11.227092    14A    -11.220991    15A     -1.358275
      16A     -1.279883    17A     -1.258600    18A     -1.148397
      19A     -1.075193    20A     -1.021301    21A     -1.016037
      22A     -0.969134    23A     -0.898539    24A     -0.842607
      25A     -0.823277    26A     -0.791064    27A     -0.773787
      28A     -0.727355    29A     -0.694587    30A     -0.672378
      31A     -0.664032    32A     -0.620034    33A     -0.615984
      34A     -0.595307    35A     -0.592734    36A     -0.590185
      37A     -0.586929    38A     -0.575406    39A     -0.554748
      40A     -0.550970    41A     -0.514515    42A     -0.499513
      43A     -0.483145    44A     -0.459334    45A     -0.408338
      46A     -0.384471    47A     -0.342070    48A     -0.318785
      49A     -0.258217

  @DF-RHF Final Energy:  -606.12234309268388

   => Energetics <=

    Nuclear Repulsion Energy =            790.9618095552528985
    One-Electron Energy =               -2393.0760677610928724
    Two-Electron Energy =                 995.9919151131562103
    Total Energy =                       -606.1223430926838773
 Dipole X            :         10.8071989          -11.2258115           -0.4186126
 Dipole Y            :         -5.5640086            5.1843641           -0.3796445
 Dipole Z            :         12.0283961          -11.1318169            0.8965792
 Magnitude           :                                                    1.0598211
  Basis Set: (ANONYMOUSA08BCFA8 AUX)
    Blend: CC-PVDZ-RI
    Molecular point group: c1
  Basis Set: ANONYMOUSA08BCFA8
    Blend: 6-31G*
  Basis Set: (ANONYMOUSA08BCFA8 AUX)
    Blend: CC-PVDZ-JKFIT
  Basis Set: (ANONYMOUSA08BCFA8 AUX)
    Blend: CC-PVDZ-JKFIT
	 Reference Energy          =    -606.1223430926838773 [Eh]
	 Singles Energy            =      -0.0000000000000000 [Eh]
	 Same-Spin Energy          =      -0.5304500474144838 [Eh]
	 Opposite-Spin Energy      =      -1.4263423477511430 [Eh]
	 Correlation Energy        =      -1.9567923951656268 [Eh]
	 Total Energy              =    -608.0791354878494985 [Eh]

	 ================> DF-SCS-MP2 Energies <==================
	-----------------------------------------------------------
	 SCS Same-Spin Scale       =       0.3333333333333333 [-]
	 SCS Opposite-Spin Scale   =       1.2000000000000000 [-]
	 SCS Same-Spin Energy      =      -0.1768166824714946 [Eh]
	 SCS Opposite-Spin Energy  =      -1.7116108173013715 [Eh]
	 SCS Correlation Energy    =      -1.8884274997728661 [Eh]
	 SCS Total Energy          =    -608.0107705924567654 [Eh]
	-----------------------------------------------------------

  -Total Gradient:
     Atom            X                  Y                   Z
    ------   -----------------  -----------------  -----------------
       1       -0.000077776789    -0.000052008945     0.000079931463
       2       -0.000037981637     0.000070196733     0.000233997799
       3       -0.000053498912    -0.000048132147    -0.000066020090
       4       -0.000016577300    -0.000061060995     0.000034203656
       5        0.000147505700     0.000105669984    -0.000179508583
       6       -0.000065439030     0.000002942063     0.000075326912
       7       -0.000068355080    -0.000222041743    -0.000088814099
       8        0.000140776611     0.000142401315     0.000131203342
       9        0.000046329277     0.000151456837     0.000028585606
      10        0.000009636714     0.000002926112    -0.000038972933
      11       -0.000090526553    -0.000119180506    -0.000024603830
      12        0.000007391905     0.000107264676    -0.000095125843
      13        0.000019874125    -0.000000954600    -0.000024552264
      14        0.000054858238    -0.000034547625     0.000026053365
      15        0.000009491109    -0.000018986143     0.000000066633
      16        0.000007007096    -0.000006420936    -0.000005310344
      17       -0.000052311847    -0.000078038078    -0.000058162748
      18       -0.000007171975     0.000002150228     0.000029834864
      19       -0.000004654170     0.000016105312    -0.000002553249
      20        0.000007550915    -0.000001332624     0.000005592246
      21       -0.000019998424    -0.000031638850    -0.000027006392
      22        0.000022621251     0.000038603212     0.000024898317
      23        0.000007318353     0.000005175380    -0.000011105501
      24        0.000013930421     0.000029451344    -0.000047958328

    Molecular point group: c1

    Geometry (in Angstrom), charge = 0, multiplicity = 1:

    H            0.275027733527     0.601751848832    -0.979504168655
    N            0.242298906385    -0.043140654725    -0.177753017175
    C            1.316997121058    -0.909125317038     0.056542520031
    C            2.558538734438    -0.587463414054    -0.506738381600
    C           -0.880642322475     0.068263392773     0.562690988242
    C            1.180956063197    -2.082187156076     0.809737114708
    C           -1.893247077799     0.924501204597     0.214490717202
    N           -2.971185255743     2.510919431283    -0.965355844095
    C           -3.145018570580     1.215171313997     0.870084915556
    C           -1.798999845747     1.781383565741    -0.969885462189
    C           -3.771027606004     2.168104435370     0.128790837892
    C            2.290204628298    -2.897373119597     1.022853206273
    C            3.654287225059    -1.420598217922    -0.304384969909
    C            3.529265950718    -2.575275103073     0.468995809770
    H            0.212088069557    -2.377444386564     1.201570287500
    H            2.658110190303     0.324871714737    -1.090973635833
    H           -3.192564681559     3.193169078428    -1.678393825310
    O           -0.877064488383     1.867255712650    -1.808459519845
    H            2.176003419966    -3.805384825829     1.609470430956
    H            4.612036247150    -1.159372459097    -0.746885432141
    H           -3.529082075035     0.755622844136     1.771330218802
    H           -4.728729176243     2.647864710674     0.278561103459
    H            4.386724046876    -3.221921243859     0.632035426298
    H           -0.939222822094    -0.540616592424     1.462460195465

*** Psi4 exiting successfully. Buy a developer a beer!
