                               Psi4 1.6 release

  ==> Input File <==

--------------------------------------------------------------------------
molecule {
0 1
H 0.275027733527 0.601751848832 -0.979504168655
N 0.242298906385 -0.043140654725 -0.177753017175
C 1.316997121058 -0.909125317038 0.056542520031
C 2.558538734438 -0.587463414054 -0.5067383816
C -0.880642322475 0.068263392773 0.562690988242
C 1.180956063197 -2.082187156076 0.809737114708
C -1.893247077799 0.924501204597 0.214490717202
N -2.971185255743 2.510919431283 -0.965355844095
C -3.14501857058 1.215171313997 0.870084915556
C -1.798999845747 1.781383565741 -0.969885462189
C -3.771027606004 2.16810443537 0.128790837892
C 2.290204628298 -2.897373119597 1.022853206273
C 3.654287225059 -1.420598217922 -0.304384969909
C 3.529265950718 -2.575275103073 0.46899580977
H 0.212088069557 -2.377444386564 1.2015702875
H 2.658110190303 0.324871714737 -1.090973635833
H -3.192564681559 3.193169078428 -1.67839382531
O -0.877064488383 1.86725571265 -1.808459519845
H 2.176003419966 -3.805384825829 1.609470430956
H 4.61203624715 -1.159372459097 -0.746885432141
H -3.529082075035 0.755622844136 1.771330218802
H -4.728729176243 2.647864710674 0.278561103459
H 4.386724046876 -3.221921243859 0.632035426298
H -0.939222822094 -0.540616592424 1.462460195465
}
memory 20GB
set_num_threads(5)
psi4_io.set_default_path("/scratch/liuchw/Psi4-1_16_Index_0-farH_in17")
set maxiter 500
set freeze_core True
set PROPERTIES_ORIGIN ["COM"]
set cubeprop_tasks ['esp']
set basis aug-cc-pVTZ
E, wfn = properties('mp2',properties=['dipole','GRID_ESP','WIBERG_LOWDIN_INDICES','MULLIKEN_CHARGES'],return_wfn=True)
cubeprop(wfn)
fchk(wfn, "1_16_Index_0-esp.fchk")
clean()
--------------------------------------------------------------------------

    Molecular point group: c1
  Charge       = 0
  Multiplicity = 1
  Basis Set: AUG-CC-PVTZ
    Blend: AUG-CC-PVTZ
  Basis Set: (AUG-CC-PVTZ AUX)
    Blend: AUG-CC-PVTZ-JKFIT

    Orbital Energies [Eh]
    ---------------------

    Doubly Occupied:

       1A    -20.514944     2A    -15.602639     3A    -15.596537
       4A    -11.345398     5A    -11.318460     6A    -11.295006
       7A    -11.271983     8A    -11.248093     9A    -11.246683
      10A    -11.242278    11A    -11.239334    12A    -11.235453
      13A    -11.231167    14A    -11.225827    15A     -1.365884
      16A     -1.285040    17A     -1.265447    18A     -1.154021
      19A     -1.081436    20A     -1.026540    21A     -1.021465
      22A     -0.974890    23A     -0.904056    24A     -0.847856
      25A     -0.828786    26A     -0.796888    27A     -0.779017
      28A     -0.732916    29A     -0.701459    30A     -0.676998
      31A     -0.669596    32A     -0.625793    33A     -0.622104
      34A     -0.603397    35A     -0.599544    36A     -0.595875
      37A     -0.592126    38A     -0.582543    39A     -0.562060
      40A     -0.558290    41A     -0.519680    42A     -0.504549
      43A     -0.490146    44A     -0.469084    45A     -0.419070
      46A     -0.392446    47A     -0.348563    48A     -0.326016
      49A     -0.267248

  @DF-RHF Final Energy:  -606.33762191465757

   => Energetics <=

    Nuclear Repulsion Energy =            790.9618095552499426
    One-Electron Energy =               -2392.9896046397993814
    Two-Electron Energy =                 995.6901731698917501
    Total Energy =                       -606.3376219146575750
  Basis Set: (AUG-CC-PVTZ AUX)
    Blend: AUG-CC-PVTZ-RI
    Molecular point group: c1

    Geometry (in Angstrom), charge = 0, multiplicity = 1:

       Center              X                  Y                   Z               Mass
    ------------   -----------------  -----------------  -----------------  -----------------
         H            0.349190202007     0.553178909373    -0.903105840367     1.007825032230
         N            0.316461374865    -0.091713594184    -0.101354688887    14.003074004430
         C            1.391159589538    -0.957698256497     0.132940848319    12.000000000000
         C            2.632701202918    -0.636036353513    -0.430340053312    12.000000000000
         C           -0.806479853995     0.019690453314     0.639089316530    12.000000000000
         C            1.255118531677    -2.130760095535     0.886135442996    12.000000000000
         C           -1.819084609319     0.875928265138     0.290889045490    12.000000000000
         N           -2.897022787263     2.462346491824    -0.888957515807    14.003074004430
         C           -3.070856102100     1.166598374538     0.946483243844    12.000000000000
         C           -1.724837377267     1.732810626282    -0.893487133901    12.000000000000
         C           -3.696865137524     2.119531495911     0.205189166180    12.000000000000
         C            2.364367096778    -2.945946059056     1.099251534561    12.000000000000
         C            3.728449693539    -1.469171157381    -0.227986641621    12.000000000000
         C            3.603428419198    -2.623848042532     0.545394138058    12.000000000000
         H            0.286250538037    -2.426017326023     1.277968615788     1.007825032230
         H            2.732272658783     0.276298775278    -1.014575307545     1.007825032230
         H           -3.118402213079     3.144596138969    -1.601995497022     1.007825032230
         O           -0.802902019903     1.818682773191    -1.732061191557    15.994914619570
         H            2.250165888446    -3.853957765288     1.685868759244     1.007825032230
         H            4.686198715630    -1.207945398556    -0.670487103853     1.007825032230
         H           -3.454919606555     0.707049904677     1.847728547090     1.007825032230
         H           -4.654566707763     2.599291771215     0.354959431747     1.007825032230
         H            4.460886515356    -3.270494183318     0.708433754586     1.007825032230
         H           -0.865060353614    -0.589189531883     1.538858523753     1.007825032230

  Basis Set: AUG-CC-PVTZ
    Blend: AUG-CC-PVTZ
  Basis Set: (AUG-CC-PVTZ AUX)
    Blend: AUG-CC-PVTZ-JKFIT
	 Reference Energy          =    -606.3376219146575750 [Eh]
	 Singles Energy            =      -0.0000000000000000 [Eh]
	 Same-Spin Energy          =      -0.6220736579529007 [Eh]
	 Opposite-Spin Energy      =      -1.7845965082765234 [Eh]
	 Correlation Energy        =      -2.4066701662294241 [Eh]
	 Total Energy              =    -608.7442920808870213 [Eh]

	 ================> DF-SCS-MP2 Energies <==================
	-----------------------------------------------------------
	 SCS Same-Spin Scale       =       0.3333333333333333 [-]
	 SCS Opposite-Spin Scale   =       1.2000000000000000 [-]
	 SCS Same-Spin Energy      =      -0.2073578859843002 [Eh]
	 SCS Opposite-Spin Energy  =      -2.1415158099318279 [Eh]
	 SCS Correlation Energy    =      -2.3488736959161280 [Eh]
	 SCS Total Energy          =    -608.6864956105737292 [Eh]
	-----------------------------------------------------------

 Dipole X            :         -2.7871100            2.5085704           -0.2785395
 Dipole Y            :          3.5041956           -3.8110121           -0.3068165
 Dipole Z            :         -2.3476570            3.0166310            0.6689740
 Magnitude           :                                                    0.7869224

  Mulliken Charges: (a.u.)
   Center  Symbol    Alpha    Beta     Spin     Total
       1     H     0.35552  0.35552  0.00000  0.28897
       2     N     3.60358  3.60358  0.00000 -0.20715
       3     C     2.60615  2.60615  0.00000  0.78770
       4     C     3.27421  3.27421  0.00000 -0.54842
       5     C     3.68577  3.68577  0.00000 -1.37153
       6     C     3.24105  3.24105  0.00000 -0.48210
       7     C     2.06047  2.06047  0.00000  1.87906
       8     N     3.48359  3.48359  0.00000  0.03281
       9     C     3.41008  3.41008  0.00000 -0.82016
      10     C     3.00259  3.00259  0.00000 -0.00517
      11     C     3.40170  3.40170  0.00000 -0.80339
      12     C     3.34951  3.34951  0.00000 -0.69902
      13     C     3.31058  3.31058  0.00000 -0.62115
      14     C     3.11824  3.11824  0.00000 -0.23649
      15     H     0.28602  0.28602  0.00000  0.42796
      16     H     0.31355  0.31355  0.00000  0.37291
      17     H     0.44638  0.44638  0.00000  0.10724
      18     O     4.40792  4.40792  0.00000 -0.81584
      19     H     0.29189  0.29189  0.00000  0.41622
      20     H     0.29437  0.29437  0.00000  0.41126
      21     H     0.28011  0.28011  0.00000  0.43978
      22     H     0.15984  0.15984  0.00000  0.68032
      23     H     0.29650  0.29650  0.00000  0.40701
      24     H     0.32041  0.32041  0.00000  0.35917

   Total alpha = 49.00000, Total beta = 49.00000, Total charge =  0.00000

  Basis Set: AUG-CC-PVTZ
    Blend: AUG-CC-PVTZ
*** Psi4 exiting successfully. Buy a developer a beer!
