                               Psi4 1.6 release

  ==> Input File <==

--------------------------------------------------------------------------
molecule {
0 1
C          1.74620       -1.05080        0.18250
N          2.96770       -1.22590        0.93830
C          4.20790       -0.75070        0.46350
C          5.41700       -0.91200        1.42550
C          2.83610       -1.83070        2.26690
O          4.37860       -0.19540       -0.62670
C          0.49640       -1.04020        0.82360
C         -0.69030       -0.69330       -1.27690
C         -0.69900       -0.87610        0.10610
C          0.54570       -0.74670       -1.92620
C          1.74110       -0.91260       -1.20990
H          3.76190       -2.31380        2.58500
H          2.07280       -2.61550        2.26200
H          2.58270       -1.04830        2.98880
N          6.60930       -0.19800        0.91940
H          5.63850       -1.98490        1.46880
H          5.16110       -0.54490        2.42510
H          0.40570       -1.13160        1.90150
H         -1.63560       -0.88150        0.65530
H          0.59670       -0.66530       -3.00930
H          2.65370       -0.96970       -1.79450
N         -1.86950       -0.60480       -2.05600
C          6.49030        1.26440        0.98430
H         -1.68130       -0.10010       -2.92110
H          6.57290        1.59800        2.02760
H          5.51790        1.62350        0.63090
H          6.75730       -0.46670       -0.05340
H         -2.74410       -0.97680       -1.79920
H          7.27020        1.65250        0.36300
}
memory 208GB
set_num_threads(51)
psi4_io.set_default_path("/scratch/liuchw/Psi4-farH_in17")
set maxiter 500
set freeze_core True
set PROPERTIES_ORIGIN ["COM"]
set cubeprop_tasks ['esp']
set basis MINIX
E, wfn = properties('hf',properties=['dipole','WIBERG_LOWDIN_INDICES','MULLIKEN_CHARGES'],return_wfn=True)
cubeprop(wfn)
fchk(wfn, "farH_in17-esp_frag.fchk")
clean()
--------------------------------------------------------------------------

    Molecular point group: c1

    Geometry (in Angstrom), charge = 0, multiplicity = 1:

       Center              X                  Y                   Z               Mass
    ------------   -----------------  -----------------  -----------------  -----------------
         C           -0.772044355466    -0.372408463989     0.094146462077    12.000000000000
         N            0.449455644534    -0.547508463989     0.849946462077    14.003074004430
         C            1.689655644534    -0.072308463989     0.375146462077    12.000000000000
         C            2.898755644534    -0.233608463989     1.337146462077    12.000000000000
         C            0.317855644534    -1.152308463989     2.178546462077    12.000000000000
         O            1.860355644534     0.482991536011    -0.715053537923    15.994914619570
         C           -2.021844355466    -0.361808463989     0.735246462077    12.000000000000
         C           -3.208544355466    -0.014908463989    -1.365253537923    12.000000000000
         C           -3.217244355466    -0.197708463989     0.017746462077    12.000000000000
         C           -1.972544355466    -0.068308463989    -2.014553537923    12.000000000000
         C           -0.777144355466    -0.234208463989    -1.298253537923    12.000000000000
         H            1.243655644534    -1.635408463989     2.496646462077     1.007825032230
         H           -0.445444355466    -1.937108463989     2.173646462077     1.007825032230
         H            0.064455644534    -0.369908463989     2.900446462077     1.007825032230
         N            4.091055644534     0.480391536011     0.831046462077    14.003074004430
         H            3.120255644534    -1.306508463989     1.380446462077     1.007825032230
         H            2.642855644534     0.133491536011     2.336746462077     1.007825032230
         H           -2.112544355466    -0.453208463989     1.813146462077     1.007825032230
         H           -4.153844355466    -0.203108463989     0.566946462077     1.007825032230
         H           -1.921544355466     0.013091536011    -3.097653537923     1.007825032230
         H            0.135455644534    -0.291308463989    -1.882853537923     1.007825032230
         N           -4.387744355466     0.073591536011    -2.144353537923    14.003074004430
         C            3.972055644534     1.942791536011     0.895946462077    12.000000000000
         H           -4.199544355466     0.578291536011    -3.009453537923     1.007825032230
         H            4.054655644534     2.276391536011     1.939246462077     1.007825032230
         H            2.999655644534     2.301891536011     0.542546462077     1.007825032230
         H            4.239055644534     0.211691536011    -0.141753537923     1.007825032230
         H           -5.262344355466    -0.298408463989    -1.887553537923     1.007825032230
         H            4.751955644534     2.330891536011     0.274646462077     1.007825032230

  Charge       = 0
  Multiplicity = 1
  Basis Set: MINIX
    Blend: MINIX
  Basis Set: (MINIX AUX)
    Blend: DEF2-UNIVERSAL-JKFIT

    Orbital Energies [Eh]
    ---------------------

    Doubly Occupied:

       1A    -20.291388     2A    -15.446590     3A    -15.377600
       4A    -15.369853     5A    -11.313157     6A    -11.222828
       7A    -11.217596     8A    -11.213801     9A    -11.206508
      10A    -11.170359    11A    -11.168341    12A    -11.164790
      13A    -11.158988    14A    -11.156173    15A     -1.374086
      16A     -1.239023    17A     -1.192624    18A     -1.186356
      19A     -1.112896    20A     -1.010335    21A     -0.999860
      22A     -0.973954    23A     -0.940880    24A     -0.870154
      25A     -0.829861    26A     -0.806890    27A     -0.744887
      28A     -0.698837    29A     -0.684642    30A     -0.670618
      31A     -0.659437    32A     -0.650891    33A     -0.633132
      34A     -0.613492    35A     -0.598613    36A     -0.590642
      37A     -0.581038    38A     -0.569770    39A     -0.554412
      40A     -0.545039    41A     -0.533608    42A     -0.521500
      43A     -0.512583    44A     -0.502444    45A     -0.499696
      46A     -0.482083    47A     -0.441179    48A     -0.404409
      49A     -0.373709    50A     -0.345219    51A     -0.340252
      52A     -0.273353

  @DF-RHF Final Energy:  -621.31053821259889

   => Energetics <=

    Nuclear Repulsion Energy =            873.5615501681747901
    One-Electron Energy =               -2579.6635194823602433
    Two-Electron Energy =                1084.7914311015865678
    Total Energy =                       -621.3105382125988854
 Dipole X            :         -5.8108701            4.8427766           -0.9680934
 Dipole Y            :         -1.7102588            1.2686105           -0.4416484
 Dipole Z            :         -5.4320777            6.0025866            0.5705090
 Magnitude           :                                                    1.2073685

  Mulliken Charges: (a.u.)
   Center  Symbol    Alpha    Beta     Spin     Total
       1     C     2.95998  2.95998  0.00000  0.08004
       2     N     3.66024  3.66024  0.00000 -0.32048
       3     C     2.80794  2.80794  0.00000  0.38411
       4     C     3.07869  3.07869  0.00000 -0.15738
       5     C     3.12330  3.12330  0.00000 -0.24659
       6     O     4.21514  4.21514  0.00000 -0.43028
       7     C     3.07149  3.07149  0.00000 -0.14299
       8     C     2.95188  2.95188  0.00000  0.09624
       9     C     3.07925  3.07925  0.00000 -0.15850
      10     C     3.07732  3.07732  0.00000 -0.15465
      11     C     3.06556  3.06556  0.00000 -0.13111
      12     H     0.42978  0.42978  0.00000  0.14044
      13     H     0.42650  0.42650  0.00000  0.14701
      14     H     0.43335  0.43335  0.00000  0.13330
      15     N     3.69840  3.69840  0.00000 -0.39680
      16     H     0.42914  0.42914  0.00000  0.14173
      17     H     0.42890  0.42890  0.00000  0.14220
      18     H     0.43284  0.43284  0.00000  0.13433
      19     H     0.43363  0.43363  0.00000  0.13274
      20     H     0.43384  0.43384  0.00000  0.13233
      21     H     0.41656  0.41656  0.00000  0.16689
      22     N     3.75916  3.75916  0.00000 -0.51833
      23     C     3.13354  3.13354  0.00000 -0.26707
      24     H     0.38047  0.38047  0.00000  0.23906
      25     H     0.43801  0.43801  0.00000  0.12397
      26     H     0.43712  0.43712  0.00000  0.12576
      27     H     0.38874  0.38874  0.00000  0.22252
      28     H     0.37593  0.37593  0.00000  0.24813
      29     H     0.43331  0.43331  0.00000  0.13337

   Total alpha = 52.00000, Total beta = 52.00000, Total charge =  0.00000

  Basis Set: MINIX
    Blend: MINIX
*** Psi4 exiting successfully. Buy a developer a beer!
