                               Psi4 1.6 release

  ==> Input File <==

--------------------------------------------------------------------------
molecule {
0 1
 C    1.808587   -0.522140    0.406695
 N    0.638639    0.290149    0.175309
 C   -0.580544   -0.327329    0.653195
 C   -1.364699   -0.985371   -0.456548
 C    0.809532    1.662146    0.590789
 H   -0.400414   -1.083943    1.434510
 H   -1.247617    0.421543    1.096590
 O   -1.073983   -1.010891   -1.614849
 H    0.989430    1.767281    1.674343
 H   -0.077163    2.235097    0.325630
 H    1.628467   -1.523007    0.017984
 H    2.076468   -0.595245    1.474302
 H    2.649780   -0.095434   -0.137285
 H   -2.293344   -1.470062   -0.081843
 H    1.661980    2.083978    0.060514
}
memory 20GB
set_num_threads(5)
psi4_io.set_default_path("/scratch/liuchw/Psi4-4_27_Index_0-farH_in17")
set freeze_core True
E, wfn = energy('wb97x-d/6-311+G*',return_wfn=True)
oeprop(wfn,"WIBERG_LOWDIN_INDICES")
clean()
--------------------------------------------------------------------------

    Molecular point group: c1

    Geometry (in Angstrom), charge = 0, multiplicity = 1:

       Center              X                  Y                   Z               Mass
    ------------   -----------------  -----------------  -----------------  -----------------
         C            1.752702556934    -0.379440258806     0.442693107905    12.000000000000
         N            0.582754556934     0.432848741194     0.211307107905    14.003074004430
         C           -0.636428443066    -0.184629258806     0.689193107905    12.000000000000
         C           -1.420583443066    -0.842671258806    -0.420549892095    12.000000000000
         C            0.753647556934     1.804845741194     0.626787107905    12.000000000000
         H           -0.456298443066    -0.941243258806     1.470508107905     1.007825032230
         H           -1.303501443066     0.564242741194     1.132588107905     1.007825032230
         O           -1.129867443066    -0.868191258806    -1.578850892095    15.994914619570
         H            0.933545556934     1.909980741194     1.710341107905     1.007825032230
         H           -0.133047443066     2.377796741194     0.361628107905     1.007825032230
         H            1.572582556934    -1.380307258806     0.053982107905     1.007825032230
         H            2.020583556934    -0.452545258806     1.510300107905     1.007825032230
         H            2.593895556934     0.047265741194    -0.101286892095     1.007825032230
         H           -2.349228443066    -1.327362258806    -0.045844892095     1.007825032230
         H            1.606095556934     2.226677741194     0.096512107905     1.007825032230

  Charge       = 0
  Multiplicity = 1
  Basis Set: 6-311+G*
    Blend: 6-311+G*
  Basis Set: (6-311+G* AUX)
    Blend: HEAVY-AUG-CC-PVTZ-JKFIT

    Orbital Energies [Eh]
    ---------------------

    Doubly Occupied:

       1A    -19.248997     2A    -14.428063     3A    -10.374212
       4A    -10.325795     5A    -10.302714     6A    -10.301211
       7A     -1.161830     8A     -1.037066     9A     -0.853761
      10A     -0.814207    11A     -0.727311    12A     -0.655341
      13A     -0.592112    14A     -0.579997    15A     -0.566286
      16A     -0.538017    17A     -0.512228    18A     -0.504617
      19A     -0.482961    20A     -0.462620    21A     -0.458249
      22A     -0.446263    23A     -0.344109    24A     -0.298454

  @DF-RKS Final Energy:  -287.76202538751602

   => Energetics <=

    Nuclear Repulsion Energy =            246.1522992866036645
    One-Electron Energy =                -876.9101965288089104
    Two-Electron Energy =                 370.8638050786873350
    DFT Exchange-Correlation Energy =     -27.8606312916276089
    Empirical Dispersion Energy =          -0.0073019323705126
    VV10 Nonlocal Energy =                  0.0000000000000000
    Total Energy =                       -287.7620253875160188
 Dipole X            :         -4.1939821            4.1970793            0.0030972
 Dipole Y            :         -2.6564765            2.8299529            0.1734764
 Dipole Z            :         -4.5131974            5.7935435            1.2803461
 Magnitude           :                                                    1.2920486
*** Psi4 exiting successfully. Buy a developer a beer!
