                               Psi4 1.6 release

  ==> Input File <==

--------------------------------------------------------------------------
molecule {
0 1
 C    1.968309   -0.381556    0.912827
 N    0.861352    0.011309    0.070181
 C   -0.318975   -0.765071    0.386128
 C   -1.657358   -0.354017   -0.156661
 C    0.676771    1.447687    0.051317
 H   -0.149804   -1.795517    0.048434
 H   -0.485580   -0.824529    1.484319
 O   -1.953199    0.579574   -0.845286
 H    0.426228    1.855874    1.044040
 H   -0.114220    1.706902   -0.643949
 H    2.101446   -1.461718    0.857829
 H    1.823721   -0.099084    1.968523
 H    2.876055    0.093609    0.544929
 H   -2.435418   -1.072508    0.181263
 H    1.605792    1.905813   -0.284555
}
memory 20GB
set_num_threads(5)
psi4_io.set_default_path("/scratch/liuchw/Psi4-4_27_Index_0-farH_in17")
set freeze_core True
E, wfn = energy('wb97x-d/6-311+G*',return_wfn=True)
oeprop(wfn,"WIBERG_LOWDIN_INDICES")
clean()
--------------------------------------------------------------------------

    Molecular point group: c1

    Geometry (in Angstrom), charge = 0, multiplicity = 1:

       Center              X                  Y                   Z               Mass
    ------------   -----------------  -----------------  -----------------  -----------------
         C            2.031044654540    -0.486121728247     0.832116513757    12.000000000000
         N            0.924087654540    -0.093256728247    -0.010529486243    14.003074004430
         C           -0.256239345460    -0.869636728247     0.305417513757    12.000000000000
         C           -1.594622345460    -0.458582728247    -0.237371486243    12.000000000000
         C            0.739506654540     1.343121271753    -0.029393486243    12.000000000000
         H           -0.087068345460    -1.900082728247    -0.032276486243     1.007825032230
         H           -0.422844345460    -0.929094728247     1.403608513757     1.007825032230
         O           -1.890463345460     0.475008271753    -0.925996486243    15.994914619570
         H            0.488963654540     1.751308271753     0.963329513757     1.007825032230
         H           -0.051484345460     1.602336271753    -0.724659486243     1.007825032230
         H            2.164181654540    -1.566283728247     0.777118513757     1.007825032230
         H            1.886456654540    -0.203649728247     1.887812513757     1.007825032230
         H            2.938790654540    -0.010956728247     0.464218513757     1.007825032230
         H           -2.372682345460    -1.177073728247     0.100552513757     1.007825032230
         H            1.668527654540     1.801247271753    -0.365265486243     1.007825032230

  Charge       = 0
  Multiplicity = 1
  Basis Set: 6-311+G*
    Blend: 6-311+G*
  Basis Set: (6-311+G* AUX)
    Blend: HEAVY-AUG-CC-PVTZ-JKFIT

    Orbital Energies [Eh]
    ---------------------

    Doubly Occupied:

       1A    -19.257575     2A    -14.432814     3A    -10.387078
       4A    -10.330622     5A    -10.304241     6A    -10.289641
       7A     -1.171586     8A     -1.038432     9A     -0.859917
      10A     -0.810157    11A     -0.732773    12A     -0.657759
      13A     -0.595236    14A     -0.581773    15A     -0.564869
      16A     -0.539344    17A     -0.520773    18A     -0.501036
      19A     -0.479425    20A     -0.465532    21A     -0.457338
      22A     -0.451469    23A     -0.347935    24A     -0.303047

  @DF-RKS Final Energy:  -287.76197661781379

   => Energetics <=

    Nuclear Repulsion Energy =            247.3082752930739616
    One-Electron Energy =                -879.0931581886809454
    Two-Electron Energy =                 371.8929041046525867
    DFT Exchange-Correlation Energy =     -27.8627173954633491
    Empirical Dispersion Energy =          -0.0072804313960115
    VV10 Nonlocal Energy =                  0.0000000000000000
    Total Energy =                       -287.7619766178137297
 Dipole X            :         -5.4243716            5.8125810            0.3882094
 Dipole Y            :         -0.0947182           -0.5901614           -0.6848796
 Dipole Z            :         -3.3779587            4.1902308            0.8122722
 Magnitude           :                                                    1.1311731
*** Psi4 exiting successfully. Buy a developer a beer!
