   * xtb version 6.5.0 (97a52f5) compiled by 'conda@d2599ee0d4f4' on 2022-05-15
          program call               : /home/liuchw/anaconda3/envs/xtbenv/bin/xtb --gfn 2 --chrg 0 --uhf 0 4_27_Index_0-opt-2-3-039_preQMOPTprefit_xyzformat.xyz --opt --input xtb-opt-2-3-039_constr.txt

   ID    Z sym.   atoms
    1    6 C      1, 3-5
    2    7 N      2
    3    1 H      6, 7, 9-15
    4    8 O      8
constraining angle 5 2 3 4 to   39.0546032°, actual value:   39.0546032°
constraining angle 2 3 4 8 to  359.0102116°, actual value:   -0.9897884°
constraining angle 10 5 2 1 to  176.0047523°, actual value:  176.0047523°
constraining angle 13 1 2 5 to  300.9956753°, actual value:  -59.0043247°

          :  Hamiltonian                  GFN2-xTB          :
 * total energy  :   -20.0963212 Eh     change       -0.9674039E-11 Eh
 * total energy  :   -20.1023677 Eh     change       -0.6046507E-02 Eh
 * total energy  :   -20.1030454 Eh     change       -0.6776836E-03 Eh
 * total energy  :   -20.1028423 Eh     change        0.2030795E-03 Eh
 * total energy  :   -20.1032428 Eh     change       -0.4004520E-03 Eh
 * total energy  :   -20.1032567 Eh     change       -0.1393115E-04 Eh
 * total energy  :   -20.1032593 Eh     change       -0.2607418E-05 Eh
 * total energy  :   -20.1032635 Eh     change       -0.4189163E-05 Eh
 * total energy  :   -20.1032639 Eh     change       -0.4392337E-06 Eh
 * total energy  :   -20.1032643 Eh     change       -0.3576084E-06 Eh
   *** GEOMETRY OPTIMIZATION CONVERGED AFTER 10 ITERATIONS ***

 final structure:
================
15
 xtb: 6.5.0 (97a52f5)
C            1.96830895839056       -0.38155569779913        0.91282694078152
N            0.86135158109015        0.01130938192312        0.07018068360132
C           -0.31897472155767       -0.76507126873990        0.38612822686419
C           -1.65735787730751       -0.35401718774680       -0.15666056690560
C            0.67677122703234        1.44768716949173        0.05131654570107
H           -0.14980376677565       -1.79551733076639        0.04843353707777
H           -0.48557977905389       -0.82452927527891        1.48431939695957
O           -1.95319888512093        0.57957406163558       -0.84528571075818
H            0.42622775409202        1.85587384181347        1.04403957876222
H           -0.11421966064554        1.70690186172820       -0.64394869143417
H            2.10144561591303       -1.46171754192872        0.85782936247067
H            1.82372145157771       -0.09908362115022        1.96852326735395
H            2.87605502823526        0.09360859554619        0.54492926136098
H           -2.43541790638526       -1.07250759232091        0.18126341094456
H            1.60579200051540        1.90581259359274       -0.28455526277972

          :  Hamiltonian                  GFN2-xTB          :
         :: total energy             -20.103264294356 Eh    ::
         :: gradient norm              0.000415324860 Eh/a0 ::
         :: HOMO-LUMO gap              2.435187189207 eV    ::
         :: SCC energy               -20.338250910079 Eh    ::
         :: -> dispersion             -0.008555867047 Eh    ::
         :: repulsion energy           0.234962587000 Eh    ::

    * Orbital Energies and Occupations

         #    Occupation            Energy/Eh            Energy/eV
      -------------------------------------------------------------
         1        2.0000           -0.7240660             -19.7028
       ...           ...                  ...                  ...
         6        2.0000           -0.5715510             -15.5527
         7        2.0000           -0.5648451             -15.3702
         8        2.0000           -0.5557321             -15.1222
         9        2.0000           -0.5331685             -14.5083
        10        2.0000           -0.5219213             -14.2022
        11        2.0000           -0.5172566             -14.0753
        12        2.0000           -0.4921928             -13.3932
        13        2.0000           -0.4847080             -13.1896
        14        2.0000           -0.4735248             -12.8853
        15        2.0000           -0.4617338             -12.5644
        16        2.0000           -0.4557701             -12.4021
        17        2.0000           -0.4043474             -11.0029
        18        2.0000           -0.3547514              -9.6533 (HOMO)
        19                         -0.2652599              -7.2181 (LUMO)
        20                          0.0126144               0.3433
        21                          0.0692384               1.8841
        22                          0.0951458               2.5890
        23                          0.1226313               3.3370
        24                          0.1477537               4.0206
        25                          0.1597100               4.3459
        26                          0.1761000               4.7919
        27                          0.1842395               5.0134
        28                          0.2003303               5.4513
        29                          0.2126287               5.7859
       ...                                ...                  ...
        33                          0.6322385              17.2041
      -------------------------------------------------------------
                  HL-Gap            0.0894915 Eh            2.4352 eV

     #   Z          covCN         q      C6AA      α(0)
     1   6 C        3.719    -0.035    21.328     6.597
     2   7 N        2.723    -0.159    24.439     7.342
     3   6 C        3.760    -0.013    20.856     6.511
     4   6 C        2.754     0.213    23.498     7.938
     5   6 C        3.705    -0.042    21.480     6.625
     6   1 H        0.924     0.069     2.095     2.264
     7   1 H        0.921     0.046     2.371     2.408
     8   8 O        0.856    -0.314    20.045     6.003
     9   1 H        0.923     0.010     2.895     2.661
    10   1 H        0.925     0.072     2.063     2.246
    11   1 H        0.925     0.037     2.490     2.467
    12   1 H        0.923     0.013     2.836     2.634
    13   1 H        0.925     0.047     2.353     2.399
    14   1 H        0.921     0.016     2.793     2.613
    15   1 H        0.925     0.041     2.437     2.441

Wiberg/Mayer (AO) data.
largest (>0.10) Wiberg bond orders for each atom

     #   Z sym  total        # sym  WBO       # sym  WBO       # sym  WBO
 ---------------------------------------------------------------------------
     1   6 C    3.986 --     2 N    1.015    11 H    0.983    13 H    0.982
                            12 H    0.972
     2   7 N    3.137 --     3 C    1.015     1 C    1.015     5 C    1.011
     3   6 C    3.992 --     2 N    1.015     4 C    1.012     6 H    0.936
                             7 H    0.924
     4   6 C    3.924 --     8 O    1.914     3 C    1.012    14 H    0.928
     5   6 C    3.980 --     2 N    1.011    15 H    0.982     9 H    0.975
                            10 H    0.974
     6   1 H    0.995 --     3 C    0.936
     7   1 H    0.998 --     3 C    0.924
     8   8 O    2.112 --     4 C    1.914
     9   1 H    1.000 --     5 C    0.975
    10   1 H    0.995 --     5 C    0.974
    11   1 H    0.999 --     1 C    0.983
    12   1 H    1.000 --     1 C    0.972
    13   1 H    0.997 --     1 C    0.982
    14   1 H    0.999 --     4 C    0.928
    15   1 H    0.998 --     5 C    0.982
 ---------------------------------------------------------------------------

molecular dipole:
                 x           y           z       tot (Debye)
 q only:        0.488      -0.583       0.552
   full:        0.432      -0.729       0.984       3.301

           -------------------------------------------------
          | TOTAL ENERGY              -20.103264294356 Eh   |
          | GRADIENT NORM               0.000415324860 Eh/α |
          | HOMO-LUMO GAP               2.435187189207 eV   |
           -------------------------------------------------

 * finished run on 2023/11/18 at 08:12:01.601
