   * xtb version 6.5.0 (97a52f5) compiled by 'conda@d2599ee0d4f4' on 2022-05-15
          program call               : /home/liuchw/anaconda3/envs/xtbenv/bin/xtb --gfn 2 --chrg 0 --uhf 0 4_27_Index_0-opt-2-3-279_preQMOPTprefit_xyzformat.xyz --opt --input xtb-opt-2-3-279_constr.txt

   ID    Z sym.   atoms
    1    6 C      1, 3-5
    2    7 N      2
    3    1 H      6, 7, 9-15
    4    8 O      8
constraining angle 5 2 3 4 to  279.0584626°, actual value:  -80.9415374°
constraining angle 2 3 4 8 to  359.0104771°, actual value:   -0.9895229°
constraining angle 10 5 2 1 to  175.9926160°, actual value:  175.9926160°
constraining angle 13 1 2 5 to  301.0167219°, actual value:  -58.9832781°

          :  Hamiltonian                  GFN2-xTB          :
 * total energy  :   -20.0997603 Eh     change       -0.5353940E-10 Eh
 * total energy  :   -20.1053826 Eh     change       -0.5622308E-02 Eh
 * total energy  :   -20.1062943 Eh     change       -0.9116583E-03 Eh
 * total energy  :   -20.1064293 Eh     change       -0.1350010E-03 Eh
 * total energy  :   -20.1065262 Eh     change       -0.9694628E-04 Eh
 * total energy  :   -20.1065596 Eh     change       -0.3337193E-04 Eh
 * total energy  :   -20.1065636 Eh     change       -0.4038968E-05 Eh
 * total energy  :   -20.1065645 Eh     change       -0.9106827E-06 Eh
   *** GEOMETRY OPTIMIZATION CONVERGED AFTER 8 ITERATIONS ***

 final structure:
================
15
 xtb: 6.5.0 (97a52f5)
C            1.51410243540401       -0.08127826421862        1.36848865861829
N            0.96437034742141       -0.07650208974848        0.02896757630579
C           -0.27404109042666       -0.80298300821630       -0.11731599051747
C           -1.41748172399959       -0.49030765566160        0.82127517188875
C            0.95451484352921        1.23464899342444       -0.58132145991211
H           -0.63699609789312       -0.68851643370907       -1.14343929334014
H           -0.06400534936342       -1.87336368145429        0.02570344481980
O           -1.42601323169032        0.30406372952539        1.71817458029868
H            0.32131272151744        1.95729097153960       -0.04617769015211
H            0.59672141807174        1.15141492559976       -1.60689056965830
H            1.53780138176156       -1.10615071426874        1.73708766202536
H            0.94887123870310        0.53650377789907        2.07578182302480
H            2.53600901143244        0.29479556546026        1.31909179397814
H           -2.30443501052734       -1.12994368854937        0.61799794971140
H            1.97439010605946        1.61709058237793       -0.59808164709101

          :  Hamiltonian                  GFN2-xTB          :
         :: total energy             -20.106564529977 Eh    ::
         :: gradient norm              0.000887568479 Eh/a0 ::
         :: HOMO-LUMO gap              2.150899814054 eV    ::
         :: SCC energy               -20.342456576138 Eh    ::
         :: -> dispersion             -0.008810277230 Eh    ::
         :: repulsion energy           0.235866740085 Eh    ::

    * Orbital Energies and Occupations

         #    Occupation            Energy/Eh            Energy/eV
      -------------------------------------------------------------
         1        2.0000           -0.7235214             -19.6880
       ...           ...                  ...                  ...
         6        2.0000           -0.5703959             -15.5213
         7        2.0000           -0.5645749             -15.3629
         8        2.0000           -0.5518928             -15.0178
         9        2.0000           -0.5345031             -14.5446
        10        2.0000           -0.5204065             -14.1610
        11        2.0000           -0.5151311             -14.0174
        12        2.0000           -0.4930364             -13.4162
        13        2.0000           -0.4741067             -12.9011
        14        2.0000           -0.4654477             -12.6655
        15        2.0000           -0.4602942             -12.5252
        16        2.0000           -0.4566421             -12.4259
        17        2.0000           -0.4206725             -11.4471
        18        2.0000           -0.3441594              -9.3651 (HOMO)
        19                         -0.2651153              -7.2142 (LUMO)
        20                          0.0252100               0.6860
        21                          0.0648502               1.7647
        22                          0.0954079               2.5962
        23                          0.1213327               3.3016
        24                          0.1318856               3.5888
        25                          0.1662420               4.5237
        26                          0.1811215               4.9286
        27                          0.1989814               5.4146
        28                          0.2116787               5.7601
        29                          0.2253286               6.1315
       ...                                ...                  ...
        33                          0.6213024              16.9065
      -------------------------------------------------------------
                  HL-Gap            0.0790441 Eh            2.1509 eV

     #   Z          covCN         q      C6AA      α(0)
     1   6 C        3.704    -0.038    21.398     6.614
     2   7 N        2.723    -0.160    24.454     7.344
     3   6 C        3.754    -0.019    20.973     6.530
     4   6 C        2.753     0.208    23.591     7.953
     5   6 C        3.705    -0.035    21.349     6.605
     6   1 H        0.924     0.066     2.131     2.283
     7   1 H        0.923     0.067     2.120     2.277
     8   8 O        0.856    -0.319    20.133     6.016
     9   1 H        0.923     0.025     2.658     2.550
    10   1 H        0.925     0.035     2.513     2.479
    11   1 H        0.925     0.035     2.510     2.478
    12   1 H        0.924     0.039     2.458     2.452
    13   1 H        0.925     0.041     2.442     2.444
    14   1 H        0.921     0.010     2.884     2.656
    15   1 H        0.925     0.044     2.395     2.420

Wiberg/Mayer (AO) data.
largest (>0.10) Wiberg bond orders for each atom

     #   Z sym  total        # sym  WBO       # sym  WBO       # sym  WBO
 ---------------------------------------------------------------------------
     1   6 C    3.983 --     2 N    1.011    11 H    0.984    13 H    0.982
                            12 H    0.974
     2   7 N    3.142 --     3 C    1.021     5 C    1.014     1 C    1.011
     3   6 C    3.993 --     2 N    1.021     4 C    0.993     6 H    0.942
                             7 H    0.933
     4   6 C    3.914 --     8 O    1.925     3 C    0.993    14 H    0.928
     5   6 C    3.985 --     2 N    1.014    10 H    0.982    15 H    0.982
                             9 H    0.975
     6   1 H    0.996 --     3 C    0.942
     7   1 H    0.996 --     3 C    0.933
     8   8 O    2.102 --     4 C    1.925
     9   1 H    0.999 --     5 C    0.975
    10   1 H    0.999 --     5 C    0.982
    11   1 H    0.999 --     1 C    0.984
    12   1 H    0.998 --     1 C    0.974
    13   1 H    0.998 --     1 C    0.982
    14   1 H    1.000 --     4 C    0.928
    15   1 H    0.998 --     5 C    0.982
 ---------------------------------------------------------------------------

molecular dipole:
                 x           y           z       tot (Debye)
 q only:        0.306      -0.452      -0.692
   full:        0.066      -0.486      -0.698       2.168

           -------------------------------------------------
          | TOTAL ENERGY              -20.106564529977 Eh   |
          | GRADIENT NORM               0.000887568479 Eh/α |
          | HOMO-LUMO GAP               2.150899814054 eV   |
           -------------------------------------------------

 * finished run on 2023/11/18 at 08:13:09.694
