                               Psi4 1.6 release

  ==> Input File <==

--------------------------------------------------------------------------
molecule {
0 1
 C    1.811880   -0.237315    1.198853
 N    0.953833   -0.083075    0.040805
 C   -0.258192   -0.881341    0.115079
 C   -1.611413   -0.259428    0.349544
 C    0.768435    1.320989   -0.272689
 H   -0.376961   -1.396005   -0.855107
 H   -0.134878   -1.672217    0.860201
 O   -1.905169    0.889167    0.519207
 H    0.287600    1.892343    0.526909
 H    0.180498    1.410356   -1.184724
 H    1.987885   -1.296174    1.385812
 H    1.398431    0.221086    2.110251
 H    2.771475    0.230941    0.982351
 H   -2.400806   -1.043289    0.308227
 H    1.752505    1.750726   -0.465377
}
memory 20GB
set_num_threads(5)
psi4_io.set_default_path("/scratch/liuchw/Psi4-4_27_Index_0-farH_in17")
set freeze_core True
E, wfn = energy('wb97x-d/6-311+G*',return_wfn=True)
oeprop(wfn,"WIBERG_LOWDIN_INDICES")
clean()
--------------------------------------------------------------------------

    Molecular point group: c1

    Geometry (in Angstrom), charge = 0, multiplicity = 1:

       Center              X                  Y                   Z               Mass
    ------------   -----------------  -----------------  -----------------  -----------------
         C            1.847247392186    -0.380561400662     0.862763720072    12.000000000000
         N            0.989200392186    -0.226321400662    -0.295284279928    14.003074004430
         C           -0.222824607814    -1.024587400662    -0.221010279928    12.000000000000
         C           -1.576045607814    -0.402674400662     0.013454720072    12.000000000000
         C            0.803802392186     1.177742599338    -0.608778279928    12.000000000000
         H           -0.341593607814    -1.539251400662    -1.191196279928     1.007825032230
         H           -0.099510607814    -1.815463400662     0.524111720072     1.007825032230
         O           -1.869801607814     0.745920599338     0.183117720072    15.994914619570
         H            0.322967392186     1.749096599338     0.190819720072     1.007825032230
         H            0.215865392186     1.267109599338    -1.520813279928     1.007825032230
         H            2.023252392186    -1.439420400662     1.049722720072     1.007825032230
         H            1.433798392186     0.077839599338     1.774161720072     1.007825032230
         H            2.806842392186     0.087694599338     0.646261720072     1.007825032230
         H           -2.365438607814    -1.186535400662    -0.027862279928     1.007825032230
         H            1.787872392186     1.607479599338    -0.801466279928     1.007825032230

  Charge       = 0
  Multiplicity = 1
  Basis Set: 6-311+G*
    Blend: 6-311+G*
  Basis Set: (6-311+G* AUX)
    Blend: HEAVY-AUG-CC-PVTZ-JKFIT

    Orbital Energies [Eh]
    ---------------------

    Doubly Occupied:

       1A    -19.255037     2A    -14.430084     3A    -10.383758
       4A    -10.328224     5A    -10.301551     6A    -10.290181
       7A     -1.168917     8A     -1.033486     9A     -0.858075
      10A     -0.806999    11A     -0.732130    12A     -0.655776
      13A     -0.592509    14A     -0.577491    15A     -0.563684
      16A     -0.539471    17A     -0.513912    18A     -0.507806
      19A     -0.475424    20A     -0.460889    21A     -0.453345
      22A     -0.444032    23A     -0.360327    24A     -0.291971

  @DF-RKS Final Energy:  -287.75760125069002

   => Energetics <=

    Nuclear Repulsion Energy =            248.5011331572924576
    One-Electron Energy =                -881.5792611395097538
    Two-Electron Energy =                 373.1921271234919573
    DFT Exchange-Correlation Energy =     -27.8641795491749811
    Empirical Dispersion Energy =          -0.0074208427896404
    VV10 Nonlocal Energy =                  0.0000000000000000
    Total Energy =                       -287.7576012506900156
 Dipole X            :         -5.0878261            5.4105180            0.3226919
 Dipole Y            :          0.2952357           -1.1127071           -0.8174713
 Dipole Z            :         -0.5100268            0.6052237            0.0951968
 Magnitude           :                                                    0.8839977
*** Psi4 exiting successfully. Buy a developer a beer!
