                               Psi4 1.6 release

  ==> Input File <==

--------------------------------------------------------------------------
molecule {
0 1
 C    1.912488   -0.316775    1.060506
 N    0.907547   -0.024944    0.061605
 C   -0.285937   -0.835782    0.248950
 C   -1.671028   -0.278864    0.070221
 C    0.721552    1.400618   -0.109842
 H   -0.227861   -1.695683   -0.436453
 H   -0.307139   -1.262028    1.266180
 O   -2.037011    0.824953   -0.213934
 H    0.360721    1.902126    0.800006
 H    0.015233    1.585716   -0.912468
 H    2.064966   -1.394124    1.118303
 H    1.649014    0.059613    2.061758
 H    2.852331    0.139989    0.753211
 H   -2.413808   -1.090897    0.234572
 H    1.684055    1.832848   -0.383276
}
memory 20GB
set_num_threads(5)
psi4_io.set_default_path("/scratch/liuchw/Psi4-4_27_Index_0-farH_in17")
set freeze_core True
E, wfn = energy('wb97x-d/6-311+G*',return_wfn=True)
oeprop(wfn,"WIBERG_LOWDIN_INDICES")
clean()
--------------------------------------------------------------------------

    Molecular point group: c1

    Geometry (in Angstrom), charge = 0, multiplicity = 1:

       Center              X                  Y                   Z               Mass
    ------------   -----------------  -----------------  -----------------  -----------------
         C            1.981704036394    -0.460963810469     0.862777770850    12.000000000000
         N            0.976763036394    -0.169132810469    -0.136123229150    14.003074004430
         C           -0.216720963606    -0.979970810469     0.051221770850    12.000000000000
         C           -1.601811963606    -0.423052810469    -0.127507229150    12.000000000000
         C            0.790768036394     1.256429189531    -0.307570229150    12.000000000000
         H           -0.158644963606    -1.839871810469    -0.634181229150     1.007825032230
         H           -0.237922963606    -1.406216810469     1.068451770850     1.007825032230
         O           -1.967794963606     0.680764189531    -0.411662229150    15.994914619570
         H            0.429937036394     1.757937189531     0.602277770850     1.007825032230
         H            0.084449036394     1.441527189531    -1.110196229150     1.007825032230
         H            2.134182036394    -1.538312810469     0.920574770850     1.007825032230
         H            1.718230036394    -0.084575810469     1.864029770850     1.007825032230
         H            2.921547036394    -0.004199810469     0.555482770850     1.007825032230
         H           -2.344591963606    -1.235085810469     0.036843770850     1.007825032230
         H            1.753271036394     1.688659189531    -0.581004229150     1.007825032230

  Charge       = 0
  Multiplicity = 1
  Basis Set: 6-311+G*
    Blend: 6-311+G*
  Basis Set: (6-311+G* AUX)
    Blend: HEAVY-AUG-CC-PVTZ-JKFIT

    Orbital Energies [Eh]
    ---------------------

    Doubly Occupied:

       1A    -19.256122     2A    -14.429596     3A    -10.387344
       4A    -10.329967     5A    -10.303012     6A    -10.288812
       7A     -1.170712     8A     -1.033938     9A     -0.860441
      10A     -0.807959    11A     -0.732413    12A     -0.656356
      13A     -0.592371    14A     -0.579224    15A     -0.562214
      16A     -0.537995    17A     -0.520030    18A     -0.503643
      19A     -0.481139    20A     -0.460913    21A     -0.454746
      22A     -0.449525    23A     -0.349055    24A     -0.296452

  @DF-RKS Final Energy:  -287.75571202669965

   => Energetics <=

    Nuclear Repulsion Energy =            247.3483739979723168
    One-Electron Energy =                -879.2324588448562963
    Two-Electron Energy =                 371.9997412020234151
    DFT Exchange-Correlation Energy =     -27.8640499200419676
    Empirical Dispersion Energy =          -0.0073184617971229
    VV10 Nonlocal Energy =                  0.0000000000000000
    Total Energy =                       -287.7557120266996549
 Dipole X            :         -5.4958110            5.8941933            0.3983823
 Dipole Y            :          0.3217055           -1.1400810           -0.8183755
 Dipole Z            :         -2.0782477            2.5504708            0.4722230
 Magnitude           :                                                    1.0253982
*** Psi4 exiting successfully. Buy a developer a beer!
