                               Psi4 1.6 release

  ==> Input File <==

--------------------------------------------------------------------------
molecule {
0 1
 C    1.643538   -0.409473   -0.140770
 N    0.591888    0.573468    0.033992
 C   -0.745720    0.054737    0.288985
 C   -1.101424   -1.389831    0.072816
 C    0.965209    1.542871    1.043647
 H   -1.037574    0.237850    1.337940
 H   -1.456675    0.627097   -0.325540
 O   -0.441474   -2.305793   -0.324969
 H    1.104617    1.092321    2.039406
 H    0.196871    2.312675    1.111673
 H    1.376483   -1.095936   -0.937738
 H    1.851721   -0.986346    0.771650
 H    2.549917    0.119856   -0.434210
 H   -2.171505   -1.543198    0.336517
 H    1.899247    2.016470    0.745935
}
memory 20GB
set_num_threads(5)
psi4_io.set_default_path("/scratch/liuchw/Psi4-4_27_Index_0-farH_in17")
set freeze_core True
E, wfn = energy('wb97x-d/6-311+G*',return_wfn=True)
oeprop(wfn,"WIBERG_LOWDIN_INDICES")
clean()
--------------------------------------------------------------------------

    Molecular point group: c1

    Geometry (in Angstrom), charge = 0, multiplicity = 1:

       Center              X                  Y                   Z               Mass
    ------------   -----------------  -----------------  -----------------  -----------------
         C            1.474555931414    -0.082506545933    -0.314613321936    12.000000000000
         N            0.422905931414     0.900434454067    -0.139851321936    14.003074004430
         C           -0.914702068586     0.381703454067     0.115141678064    12.000000000000
         C           -1.270406068586    -1.062864545933    -0.101027321936    12.000000000000
         C            0.796226931414     1.869837454067     0.869803678064    12.000000000000
         H           -1.206556068586     0.564816454067     1.164096678064     1.007825032230
         H           -1.625657068586     0.954063454067    -0.499383321936     1.007825032230
         O           -0.610456068586    -1.978826545933    -0.498812321936    15.994914619570
         H            0.935634931414     1.419287454067     1.865562678064     1.007825032230
         H            0.027888931414     2.639641454067     0.937829678064     1.007825032230
         H            1.207500931414    -0.768969545933    -1.111581321936     1.007825032230
         H            1.682738931414    -0.659379545933     0.597806678064     1.007825032230
         H            2.380934931414     0.446822454067    -0.608053321936     1.007825032230
         H           -2.340487068586    -1.216231545933     0.162673678064     1.007825032230
         H            1.730264931414     2.343436454067     0.572091678064     1.007825032230

  Charge       = 0
  Multiplicity = 1
  Basis Set: 6-311+G*
    Blend: 6-311+G*
  Basis Set: (6-311+G* AUX)
    Blend: HEAVY-AUG-CC-PVTZ-JKFIT

    Orbital Energies [Eh]
    ---------------------

    Doubly Occupied:

       1A    -19.256599     2A    -14.431226     3A    -10.387840
       4A    -10.330076     5A    -10.303167     6A    -10.288593
       7A     -1.171231     8A     -1.035003     9A     -0.860555
      10A     -0.807247    11A     -0.733011    12A     -0.656928
      13A     -0.592528    14A     -0.580296    15A     -0.562148
      16A     -0.537711    17A     -0.521299    18A     -0.503076
      19A     -0.482283    20A     -0.460199    21A     -0.454026
      22A     -0.449140    23A     -0.348686    24A     -0.300321

  @DF-RKS Final Energy:  -287.75593840292788

   => Energetics <=

    Nuclear Repulsion Energy =            247.4495753677457230
    One-Electron Energy =                -879.4174967833457686
    Two-Electron Energy =                 372.0824333069899694
    DFT Exchange-Correlation Energy =     -27.8631156759720717
    Empirical Dispersion Energy =          -0.0073346183457320
    VV10 Nonlocal Energy =                  0.0000000000000000
    Total Energy =                       -287.7559384029278817
 Dipole X            :         -3.0169628            2.6135001           -0.4034627
 Dipole Y            :         -4.5854810            5.3534709            0.7679899
 Dipole Z            :         -2.3134514            2.8863933            0.5729419
 Magnitude           :                                                    1.0396408
*** Psi4 exiting successfully. Buy a developer a beer!
