                               Psi4 1.6 release

  ==> Input File <==

--------------------------------------------------------------------------
molecule {
0 1
 C    1.697563   -0.521066    0.233972
 N    0.595744    0.408210    0.112671
 C   -0.646266   -0.162632    0.580402
 C   -1.235645   -1.182845   -0.356894
 C    0.886527    1.679459    0.737553
 H   -0.560386   -0.638786    1.578598
 H   -1.394512    0.632451    0.674544
 O   -0.796148   -1.533362   -1.411740
 H    1.050602    1.595977    1.824788
 H    0.062221    2.369230    0.561406
 H    1.450342   -1.438317   -0.295085
 H    1.932465   -0.763320    1.283916
 H    2.579801   -0.085716   -0.231627
 H   -2.182938   -1.606720    0.041523
 H    1.785749    2.094207    0.285310
}
memory 20GB
set_num_threads(5)
psi4_io.set_default_path("/scratch/liuchw/Psi4-4_27_Index_0-farH_in17")
set freeze_core True
E, wfn = energy('wb97x-d/6-311+G*',return_wfn=True)
oeprop(wfn,"WIBERG_LOWDIN_INDICES")
clean()
--------------------------------------------------------------------------

    Molecular point group: c1

    Geometry (in Angstrom), charge = 0, multiplicity = 1:

       Center              X                  Y                   Z               Mass
    ------------   -----------------  -----------------  -----------------  -----------------
         C            1.596557595642    -0.304237574038     0.244243989525    12.000000000000
         N            0.494738595642     0.625038425962     0.122942989525    14.003074004430
         C           -0.747271404358     0.054196425962     0.590673989525    12.000000000000
         C           -1.336650404358    -0.966016574038    -0.346622010475    12.000000000000
         C            0.785521595642     1.896287425962     0.747824989525    12.000000000000
         H           -0.661391404358    -0.421957574038     1.588869989525     1.007825032230
         H           -1.495517404358     0.849279425962     0.684815989525     1.007825032230
         O           -0.897153404358    -1.316533574038    -1.401468010475    15.994914619570
         H            0.949596595642     1.812805425962     1.835059989525     1.007825032230
         H           -0.038784404358     2.586058425962     0.571677989525     1.007825032230
         H            1.349336595642    -1.221488574038    -0.284813010475     1.007825032230
         H            1.831459595642    -0.546491574038     1.294187989525     1.007825032230
         H            2.478795595642     0.131112425962    -0.221355010475     1.007825032230
         H           -2.283943404358    -1.389891574038     0.051794989525     1.007825032230
         H            1.684743595642     2.311035425962     0.295581989525     1.007825032230

  Charge       = 0
  Multiplicity = 1
  Basis Set: 6-311+G*
    Blend: 6-311+G*
  Basis Set: (6-311+G* AUX)
    Blend: HEAVY-AUG-CC-PVTZ-JKFIT

    Orbital Energies [Eh]
    ---------------------

    Doubly Occupied:

       1A    -19.253306     2A    -14.432243     3A    -10.379612
       4A    -10.327207     5A    -10.303916     6A    -10.297267
       7A     -1.166721     8A     -1.040121     9A     -0.855398
      10A     -0.812876    11A     -0.729611    12A     -0.656576
      13A     -0.595991    14A     -0.581500    15A     -0.566412
      16A     -0.538853    17A     -0.516074    18A     -0.501382
      19A     -0.482009    20A     -0.464525    21A     -0.458825
      22A     -0.446885    23A     -0.347171    24A     -0.305453

  @DF-RKS Final Energy:  -287.76608242475402

   => Energetics <=

    Nuclear Repulsion Energy =            247.4993406960713287
    One-Electron Energy =                -879.5254853813338514
    Two-Electron Energy =                 372.1279885326881072
    DFT Exchange-Correlation Energy =     -27.8605909525972955
    Empirical Dispersion Energy =          -0.0073353195822719
    VV10 Nonlocal Energy =                  0.0000000000000000
    Total Energy =                       -287.7660824247540745
 Dipole X            :         -3.7181039            3.5700377           -0.1480662
 Dipole Y            :         -3.4175558            3.8452912            0.4277353
 Dipole Z            :         -4.2798573            5.4450635            1.1652062
 Magnitude           :                                                    1.2500346
*** Psi4 exiting successfully. Buy a developer a beer!
