   * xtb version 6.5.0 (97a52f5) compiled by 'conda@d2599ee0d4f4' on 2022-05-15
          program call               : /home/liuchw/anaconda3/envs/xtbenv/bin/xtb --gfn 2 --chrg 0 --uhf 0 4_27_Index_0-opt-2-3-069_preQMOPTprefit_xyzformat.xyz --opt --input xtb-opt-2-3-069_constr.txt

   ID    Z sym.   atoms
    1    6 C      1, 3-5
    2    7 N      2
    3    1 H      6, 7, 9-15
    4    8 O      8
constraining angle 5 2 3 4 to   69.0430447°, actual value:   69.0430447°
constraining angle 2 3 4 8 to  358.9722914°, actual value:   -1.0277086°
constraining angle 10 5 2 1 to  175.9928091°, actual value:  175.9928091°
constraining angle 13 1 2 5 to  301.0058180°, actual value:  -58.9941820°

          :  Hamiltonian                  GFN2-xTB          :
 * total energy  :   -20.0996188 Eh     change       -0.8235190E-10 Eh
 * total energy  :   -20.1051616 Eh     change       -0.5542847E-02 Eh
 * total energy  :   -20.1056907 Eh     change       -0.5290658E-03 Eh
 * total energy  :   -20.1057043 Eh     change       -0.1364901E-04 Eh
 * total energy  :   -20.1057826 Eh     change       -0.7829608E-04 Eh
 * total energy  :   -20.1057854 Eh     change       -0.2770816E-05 Eh
 * total energy  :   -20.1057912 Eh     change       -0.5815269E-05 Eh
 * total energy  :   -20.1057918 Eh     change       -0.5854728E-06 Eh
   *** GEOMETRY OPTIMIZATION CONVERGED AFTER 8 ITERATIONS ***

 final structure:
================
15
 xtb: 6.5.0 (97a52f5)
C            1.98842707144868       -0.42705470322336        0.75579622093868
N            0.79463311778503        0.04389520499904        0.08644815163862
C           -0.38178795321835       -0.66343337760018        0.53859378116921
C           -1.59494459847958       -0.48238258774366       -0.33272191182206
C            0.64820831850533        1.47853009449993        0.22196174446376
H           -0.16813403225881       -1.73827118374974        0.54809139353509
H           -0.68250445957936       -0.38928144644745        1.57162011448245
O           -1.68806891840697        0.18143553764393       -1.32293464352199
H            0.52561921526154        1.79110304040182        1.27234532991319
H           -0.21586624165944        1.80687367616922       -0.34975403687449
H            2.09804694061238       -1.49888576190229        0.59459302465490
H            1.97638045416750       -0.23258170290362        1.84063568479053
H            2.85295744327432        0.07360285706019        0.32340226913772
H           -2.46230486861441       -1.05920539267136        0.05521925432095
H            1.53445951116217        1.96242376546757       -0.18395639682659

          :  Hamiltonian                  GFN2-xTB          :
         :: total energy             -20.105791786281 Eh    ::
         :: gradient norm              0.000257134181 Eh/a0 ::
         :: HOMO-LUMO gap              2.534116574911 eV    ::
         :: SCC energy               -20.341176715468 Eh    ::
         :: -> dispersion             -0.008581762318 Eh    ::
         :: repulsion energy           0.235367618818 Eh    ::

    * Orbital Energies and Occupations

         #    Occupation            Energy/Eh            Energy/eV
      -------------------------------------------------------------
         1        2.0000           -0.7219600             -19.6455
       ...           ...                  ...                  ...
         6        2.0000           -0.5695721             -15.4988
         7        2.0000           -0.5662455             -15.4083
         8        2.0000           -0.5532849             -15.0556
         9        2.0000           -0.5350463             -14.5594
        10        2.0000           -0.5227723             -14.2254
        11        2.0000           -0.5168392             -14.0639
        12        2.0000           -0.4942386             -13.4489
        13        2.0000           -0.4837740             -13.1642
        14        2.0000           -0.4730827             -12.8732
        15        2.0000           -0.4622039             -12.5772
        16        2.0000           -0.4558861             -12.4053
        17        2.0000           -0.4069354             -11.0733
        18        2.0000           -0.3574440              -9.7265 (HOMO)
        19                         -0.2643169              -7.1924 (LUMO)
        20                          0.0219547               0.5974
        21                          0.0764283               2.0797
        22                          0.0963673               2.6223
        23                          0.1164135               3.1678
        24                          0.1348719               3.6701
        25                          0.1566829               4.2636
        26                          0.1718657               4.6767
        27                          0.1952596               5.3133
        28                          0.2048414               5.5740
        29                          0.2080393               5.6610
       ...                                ...                  ...
        33                          0.6300794              17.1453
      -------------------------------------------------------------
                  HL-Gap            0.0931271 Eh            2.5341 eV

     #   Z          covCN         q      C6AA      α(0)
     1   6 C        3.717    -0.036    21.334     6.598
     2   7 N        2.724    -0.156    24.362     7.331
     3   6 C        3.766    -0.012    20.828     6.505
     4   6 C        2.755     0.212    23.508     7.940
     5   6 C        3.716    -0.037    21.358     6.602
     6   1 H        0.924     0.067     2.120     2.277
     7   1 H        0.922     0.039     2.458     2.452
     8   8 O        0.856    -0.305    19.873     5.977
     9   1 H        0.923     0.008     2.915     2.670
    10   1 H        0.925     0.058     2.218     2.329
    11   1 H        0.925     0.038     2.478     2.462
    12   1 H        0.923     0.013     2.835     2.633
    13   1 H        0.925     0.048     2.348     2.397
    14   1 H        0.921     0.016     2.796     2.615
    15   1 H        0.925     0.045     2.389     2.417

Wiberg/Mayer (AO) data.
largest (>0.10) Wiberg bond orders for each atom

     #   Z sym  total        # sym  WBO       # sym  WBO       # sym  WBO
 ---------------------------------------------------------------------------
     1   6 C    3.986 --     2 N    1.015    11 H    0.982    13 H    0.982
                            12 H    0.974
     2   7 N    3.133 --     3 C    1.017     1 C    1.015     5 C    1.013
     3   6 C    3.993 --     2 N    1.017     4 C    1.005     6 H    0.939
                             7 H    0.929
     4   6 C    3.921 --     8 O    1.933     3 C    1.005    14 H    0.928
     5   6 C    3.983 --     2 N    1.013    15 H    0.983    10 H    0.980
                             9 H    0.974
     6   1 H    0.996 --     3 C    0.939
     7   1 H    0.998 --     3 C    0.929
     8   8 O    2.111 --     4 C    1.933
     9   1 H    1.000 --     5 C    0.974
    10   1 H    0.997 --     5 C    0.980
    11   1 H    0.999 --     1 C    0.982
    12   1 H    1.000 --     1 C    0.974
    13   1 H    0.997 --     1 C    0.982
    14   1 H    0.999 --     4 C    0.928
    15   1 H    0.998 --     5 C    0.983
 ---------------------------------------------------------------------------

molecular dipole:
                 x           y           z       tot (Debye)
 q only:        0.355      -0.364       0.798
   full:        0.300      -0.466       1.299       3.589

           -------------------------------------------------
          | TOTAL ENERGY              -20.105791786281 Eh   |
          | GRADIENT NORM               0.000257134181 Eh/α |
          | HOMO-LUMO GAP               2.534116574911 eV   |
           -------------------------------------------------

 * finished run on 2023/11/18 at 08:10:33.418
