   * xtb version 6.5.0 (97a52f5) compiled by 'conda@d2599ee0d4f4' on 2022-05-15
          program call               : /home/liuchw/anaconda3/envs/xtbenv/bin/xtb --gfn 2 --chrg 0 --uhf 0 4_27_Index_0-opt-2-3-099_preQMOPTprefit_xyzformat.xyz --opt --input xtb-opt-2-3-099_constr.txt

   ID    Z sym.   atoms
    1    6 C      1, 3-5
    2    7 N      2
    3    1 H      6, 7, 9-15
    4    8 O      8
constraining angle 5 2 3 4 to   99.0332906°, actual value:   99.0332906°
constraining angle 2 3 4 8 to  358.9895930°, actual value:   -1.0104070°
constraining angle 10 5 2 1 to  176.0021527°, actual value:  176.0021527°
constraining angle 13 1 2 5 to  301.0106089°, actual value:  -58.9893911°

          :  Hamiltonian                  GFN2-xTB          :
 * total energy  :   -20.0973949 Eh     change       -0.8140333E-10 Eh
 * total energy  :   -20.1023340 Eh     change       -0.4939129E-02 Eh
 * total energy  :   -20.1029193 Eh     change       -0.5852991E-03 Eh
 * total energy  :   -20.1029653 Eh     change       -0.4599801E-04 Eh
 * total energy  :   -20.1030171 Eh     change       -0.5182177E-04 Eh
 * total energy  :   -20.1030206 Eh     change       -0.3473398E-05 Eh
 * total energy  :   -20.1030240 Eh     change       -0.3392923E-05 Eh
   *** GEOMETRY OPTIMIZATION CONVERGED AFTER 7 ITERATIONS ***

 final structure:
================
15
 xtb: 6.5.0 (97a52f5)
C            1.93302760772597       -0.48249781374016        0.58929064612478
N            0.71297602027990        0.14657183236925        0.13160206599277
C           -0.48468212093574       -0.49761552125448        0.63542644608276
C           -1.51748797565039       -0.71479231958687       -0.44298092077132
C            0.71502119675609        1.56708553906160        0.40122973170651
H           -0.24777411330450       -1.49157876853251        1.03258620180399
H           -0.96240077817003        0.06142936249820        1.45731076101076
O           -1.42678916516851       -0.39892186830142       -1.59131367567655
H            0.75433297679106        1.79517219700688        1.47977536732248
H           -0.18531983286930        2.01075756193768       -0.02100655500569
H            1.92123993441948       -1.53755453016838        0.31967762983456
H            2.08370253471631       -0.39284070658485        1.67768823990067
H            2.77687727544660       -0.01459149017221        0.08443887663891
H           -2.42670010533050       -1.22365606155557       -0.05272362574139
H            1.57909654529358        2.01980058702286       -0.08166319922324

          :  Hamiltonian                  GFN2-xTB          :
         :: total energy             -20.103023988987 Eh    ::
         :: gradient norm              0.000543464779 Eh/a0 ::
         :: HOMO-LUMO gap              2.524250756003 eV    ::
         :: SCC energy               -20.338549572651 Eh    ::
         :: -> dispersion             -0.008509618595 Eh    ::
         :: repulsion energy           0.235501310903 Eh    ::

    * Orbital Energies and Occupations

         #    Occupation            Energy/Eh            Energy/eV
      -------------------------------------------------------------
         1        2.0000           -0.7181275             -19.5412
       ...           ...                  ...                  ...
         6        2.0000           -0.5689022             -15.4806
         7        2.0000           -0.5645933             -15.3634
         8        2.0000           -0.5505063             -14.9800
         9        2.0000           -0.5354541             -14.5704
        10        2.0000           -0.5201806             -14.1548
        11        2.0000           -0.5165829             -14.0569
        12        2.0000           -0.4983101             -13.5597
        13        2.0000           -0.4850150             -13.1979
        14        2.0000           -0.4688085             -12.7569
        15        2.0000           -0.4634108             -12.6100
        16        2.0000           -0.4583679             -12.4728
        17        2.0000           -0.4065434             -11.0626
        18        2.0000           -0.3534909              -9.6190 (HOMO)
        19                         -0.2607264              -7.0947 (LUMO)
        20                          0.0188277               0.5123
        21                          0.0836145               2.2753
        22                          0.0940338               2.5588
        23                          0.1140963               3.1047
        24                          0.1196551               3.2560
        25                          0.1587438               4.3196
        26                          0.1663498               4.5266
        27                          0.1949848               5.3058
        28                          0.2066103               5.6222
        29                          0.2149916               5.8502
       ...                                ...                  ...
        33                          0.6340618              17.2537
      -------------------------------------------------------------
                  HL-Gap            0.0927645 Eh            2.5243 eV

     #   Z          covCN         q      C6AA      α(0)
     1   6 C        3.711    -0.035    21.341     6.602
     2   7 N        2.725    -0.153    24.314     7.323
     3   6 C        3.760    -0.016    20.903     6.518
     4   6 C        2.755     0.210    23.558     7.948
     5   6 C        3.715    -0.033    21.299     6.594
     6   1 H        0.924     0.062     2.176     2.307
     7   1 H        0.923     0.048     2.351     2.398
     8   8 O        0.856    -0.298    19.750     5.958
     9   1 H        0.923     0.010     2.886     2.657
    10   1 H        0.925     0.046     2.375     2.410
    11   1 H        0.925     0.040     2.447     2.446
    12   1 H        0.923     0.013     2.847     2.639
    13   1 H        0.925     0.048     2.348     2.396
    14   1 H        0.921     0.014     2.833     2.632
    15   1 H        0.925     0.047     2.361     2.403

Wiberg/Mayer (AO) data.
largest (>0.10) Wiberg bond orders for each atom

     #   Z sym  total        # sym  WBO       # sym  WBO       # sym  WBO
 ---------------------------------------------------------------------------
     1   6 C    3.986 --     2 N    1.016    11 H    0.983    13 H    0.982
                            12 H    0.974
     2   7 N    3.132 --     5 C    1.016     1 C    1.016     3 C    1.013
     3   6 C    3.993 --     2 N    1.013     4 C    0.998     6 H    0.941
                             7 H    0.937
     4   6 C    3.921 --     8 O    1.944     3 C    0.998    14 H    0.927
     5   6 C    3.985 --     2 N    1.016    10 H    0.984    15 H    0.982
                             9 H    0.972
     6   1 H    0.996 --     3 C    0.941
     7   1 H    0.998 --     3 C    0.937
     8   8 O    2.115 --     4 C    1.944
     9   1 H    1.000 --     5 C    0.972
    10   1 H    0.998 --     5 C    0.984
    11   1 H    0.998 --     1 C    0.983
    12   1 H    1.000 --     1 C    0.974
    13   1 H    0.997 --     1 C    0.982
    14   1 H    1.000 --     4 C    0.927
    15   1 H    0.998 --     5 C    0.982
 ---------------------------------------------------------------------------

molecular dipole:
                 x           y           z       tot (Debye)
 q only:        0.244      -0.094       0.942
   full:        0.192      -0.151       1.473       3.795

           -------------------------------------------------
          | TOTAL ENERGY              -20.103023988987 Eh   |
          | GRADIENT NORM               0.000543464779 Eh/α |
          | HOMO-LUMO GAP               2.524250756003 eV   |
           -------------------------------------------------

 * finished run on 2023/11/18 at 08:10:45.412
