                               Psi4 1.6 release

  ==> Input File <==

--------------------------------------------------------------------------
molecule {
1 1
 H    1.864670   -0.008601   -1.169015
 C    1.138565    0.581294   -0.616343
 N   -0.036501   -0.236550   -0.234059
 H   -0.143863   -0.965026   -0.949614
 H    0.831615    1.439122   -1.210543
 H    1.619340    0.970902    0.280661
 C   -1.283225    0.549841   -0.233722
 C    0.180445   -0.920416    1.053138
 H   -1.210699    1.351110    0.500893
 H   -1.457379    0.987423   -1.214624
 H    1.103875   -1.495987    1.022904
 H    0.247714   -0.185106    1.853597
 H   -2.130578   -0.083184    0.023447
 H   -0.645383   -1.596050    1.269287
}
memory 20GB
set_num_threads(5)
psi4_io.set_default_path("/scratch/liuchw/Psi4-32_40_Index_0-farH_in17")
set freeze_core True
E, wfn = energy('wb97x-d/6-311+G*',return_wfn=True)
oeprop(wfn,"WIBERG_LOWDIN_INDICES")
clean()
--------------------------------------------------------------------------

    Molecular point group: c1

    Geometry (in Angstrom), charge = 1, multiplicity = 1:

       Center              X                  Y                   Z               Mass
    ------------   -----------------  -----------------  -----------------  -----------------
         H            1.864699519743    -0.002510057798    -1.161849848934     1.007825032230
         C            1.138594519743     0.587384942202    -0.609177848934    12.000000000000
         N           -0.036471480257    -0.230459057798    -0.226893848934    14.003074004430
         H           -0.143833480257    -0.958935057798    -0.942448848934     1.007825032230
         H            0.831644519743     1.445212942202    -1.203377848934     1.007825032230
         H            1.619369519743     0.976992942202     0.287826151066     1.007825032230
         C           -1.283195480257     0.555931942202    -0.226556848934    12.000000000000
         C            0.180474519743    -0.914325057798     1.060303151066    12.000000000000
         H           -1.210669480257     1.357200942202     0.508058151066     1.007825032230
         H           -1.457349480257     0.993513942202    -1.207458848934     1.007825032230
         H            1.103904519743    -1.489896057798     1.030069151066     1.007825032230
         H            0.247743519743    -0.179015057798     1.860762151066     1.007825032230
         H           -2.130548480257    -0.077093057798     0.030612151066     1.007825032230
         H           -0.645353480257    -1.589959057798     1.276452151066     1.007825032230

  Charge       = 1
  Multiplicity = 1
  Basis Set: 6-311+G*
    Blend: 6-311+G*
  Basis Set: (6-311+G* AUX)
    Blend: HEAVY-AUG-CC-PVTZ-JKFIT

    Orbital Energies [Eh]
    ---------------------

    Doubly Occupied:

       1A    -14.757916     2A    -10.515703     3A    -10.515567
       4A    -10.514826     5A     -1.322465     6A     -1.039637
       7A     -1.037969     8A     -0.962870     9A     -0.853018
      10A     -0.793000    11A     -0.792043    12A     -0.705770
      13A     -0.704913    14A     -0.675404    15A     -0.674596
      16A     -0.672244    17A     -0.666689

  @DF-RKS Final Energy:  -174.82769727004873

   => Energetics <=

    Nuclear Repulsion Energy =            147.5959177845838610
    One-Electron Energy =                -518.1874024272235602
    Two-Electron Energy =                 213.9113562709311793
    DFT Exchange-Correlation Energy =     -18.1406487923879745
    Empirical Dispersion Energy =          -0.0069201059522809
    VV10 Nonlocal Energy =                  0.0000000000000000
    Total Energy =                       -174.8276972700487306
 Dipole X            :         -0.1073218            0.0747352           -0.0325865
 Dipole Y            :         -0.6931196            0.4464478           -0.2466719
 Dipole Z            :         -0.6941944            0.4493736           -0.2448208
 Magnitude           :                                                    0.3490646
*** Psi4 exiting successfully. Buy a developer a beer!
