                               Psi4 1.6 release

  ==> Input File <==

--------------------------------------------------------------------------
molecule {
1 1
 H    1.998363   -0.040160   -0.756031
 C    1.123088    0.590384   -0.613724
 N   -0.048114   -0.227160   -0.247116
 H   -0.183263   -0.915020   -0.998190
 H    0.931111    1.139037   -1.533947
 H    1.332588    1.306748    0.179560
 C   -1.276366    0.583432   -0.174089
 C    0.194306   -0.967704    1.003438
 H   -1.170034    1.343182    0.599010
 H   -1.463152    1.076971   -1.125836
 H    1.110174   -1.550584    0.928138
 H    0.296110   -0.265752    1.829963
 H   -2.131382   -0.044787    0.068581
 H   -0.634830   -1.639814    1.216251
}
memory 20GB
set_num_threads(5)
psi4_io.set_default_path("/scratch/liuchw/Psi4-32_40_Index_0-farH_in17")
set freeze_core True
E, wfn = energy('wb97x-d/6-311+G*',return_wfn=True)
oeprop(wfn,"WIBERG_LOWDIN_INDICES")
clean()
--------------------------------------------------------------------------

    Molecular point group: c1

    Geometry (in Angstrom), charge = 1, multiplicity = 1:

       Center              X                  Y                   Z               Mass
    ------------   -----------------  -----------------  -----------------  -----------------
         H            1.999945062576    -0.035257204803    -0.748338161201     1.007825032230
         C            1.124670062576     0.595286795197    -0.606031161201    12.000000000000
         N           -0.046531937424    -0.222257204803    -0.239423161201    14.003074004430
         H           -0.181680937424    -0.910117204803    -0.990497161201     1.007825032230
         H            0.932693062576     1.143939795197    -1.526254161201     1.007825032230
         H            1.334170062576     1.311650795197     0.187252838799     1.007825032230
         C           -1.274783937424     0.588334795197    -0.166396161201    12.000000000000
         C            0.195888062576    -0.962801204803     1.011130838799    12.000000000000
         H           -1.168451937424     1.348084795197     0.606702838799     1.007825032230
         H           -1.461569937424     1.081873795197    -1.118143161201     1.007825032230
         H            1.111756062576    -1.545681204803     0.935830838799     1.007825032230
         H            0.297692062576    -0.260849204803     1.837655838799     1.007825032230
         H           -2.129799937424    -0.039884204803     0.076273838799     1.007825032230
         H           -0.633247937424    -1.634911204803     1.223943838799     1.007825032230

  Charge       = 1
  Multiplicity = 1
  Basis Set: 6-311+G*
    Blend: 6-311+G*
  Basis Set: (6-311+G* AUX)
    Blend: HEAVY-AUG-CC-PVTZ-JKFIT

    Orbital Energies [Eh]
    ---------------------

    Doubly Occupied:

       1A    -14.758593     2A    -10.515675     3A    -10.515577
       4A    -10.515559     5A     -1.324129     6A     -1.039943
       7A     -1.038739     8A     -0.963255     9A     -0.854076
      10A     -0.793737    11A     -0.793424    12A     -0.702638
      13A     -0.701800    14A     -0.676531    15A     -0.675938
      16A     -0.674804    17A     -0.669729

  @DF-RKS Final Energy:  -174.83054412951790

   => Energetics <=

    Nuclear Repulsion Energy =            147.8156501184683123
    One-Electron Energy =                -518.6127541190021475
    Two-Electron Energy =                 214.1152033589999633
    DFT Exchange-Correlation Energy =     -18.1416459597444728
    Empirical Dispersion Energy =          -0.0069975282395202
    VV10 Nonlocal Energy =                  0.0000000000000000
    Total Energy =                       -174.8305441295178753
 Dipole X            :         -0.1419333            0.0952936           -0.0466397
 Dipole Y            :         -0.6659940            0.4308024           -0.2351916
 Dipole Z            :         -0.7120377            0.4548313           -0.2572064
 Magnitude           :                                                    0.3516326
*** Psi4 exiting successfully. Buy a developer a beer!
