                               Psi4 1.6 release

  ==> Input File <==

--------------------------------------------------------------------------
molecule {
0 1
C 0.90469650667 -0.764289532862 -0.559500733024
C -0.15933305097 -0.073349886707 0.02865124927
C -1.426221755088 -0.815005229243 0.238240417331
O -2.402403558872 -0.042805048348 0.787338237891
C -0.014594442956 1.267322375152 0.401411395906
O -1.605865221775 -1.989620039489 -0.041221698505
C 2.114369559342 -0.111252918681 -0.775416757268
C 2.265251536623 1.226513447508 -0.405788808236
H 0.765224025961 -1.804743006917 -0.837818428099
C 1.20074318409 1.911604690894 0.181621901696
H -0.845945376267 1.794908344623 0.857213390042
H 1.318085363841 2.952864579483 0.469986706483
H -3.176097903881 -0.636739948295 0.876993733358
H 2.942553728251 -0.645789163366 -1.233019535729
H 3.211271858934 1.734514900456 -0.575149213155
}
memory 20GB
set_num_threads(5)
psi4_io.set_default_path("/scratch/liuchw/Psi4-13_34_Index_0-farH_in17")
set maxiter 500
set freeze_core True
set PROPERTIES_ORIGIN ["COM"]
set cubeprop_tasks ['esp']
set basis aug-cc-pVTZ
E, wfn = properties('mp2',properties=['dipole','GRID_ESP','WIBERG_LOWDIN_INDICES','MULLIKEN_CHARGES'],return_wfn=True)
cubeprop(wfn)
fchk(wfn, "13_34_Index_0-esp.fchk")
clean()
--------------------------------------------------------------------------

    Molecular point group: c1
  Charge       = 0
  Multiplicity = 1
  Basis Set: AUG-CC-PVTZ
    Blend: AUG-CC-PVTZ
  Basis Set: (AUG-CC-PVTZ AUX)
    Blend: AUG-CC-PVTZ-JKFIT

    Orbital Energies [Eh]
    ---------------------

    Doubly Occupied:

       1A    -20.617085     2A    -20.549519     3A    -11.393920
       4A    -11.258994     5A    -11.258360     6A    -11.257778
       7A    -11.255142     8A    -11.249501     9A    -11.248591
      10A     -1.461705    11A     -1.356483    12A     -1.171547
      13A     -1.051191    14A     -1.031850    15A     -0.900019
      16A     -0.845295    17A     -0.801360    18A     -0.731268
      19A     -0.705305    20A     -0.676184    21A     -0.640941
      22A     -0.633217    23A     -0.627339    24A     -0.605119
      25A     -0.586956    26A     -0.528006    27A     -0.519918
      28A     -0.508873    29A     -0.484434    30A     -0.458083
      31A     -0.356658    32A     -0.351281

  @DF-RHF Final Energy:  -418.47346296767023

   => Energetics <=

    Nuclear Repulsion Energy =            404.6663116562389746
    One-Electron Energy =               -1372.0357060423391431
    Two-Electron Energy =                 548.8959314184298819
    Total Energy =                       -418.4734629676702298
  Basis Set: (AUG-CC-PVTZ AUX)
    Blend: AUG-CC-PVTZ-RI
    Molecular point group: c1

    Geometry (in Angstrom), charge = 0, multiplicity = 1:

       Center              X                  Y                   Z               Mass
    ------------   -----------------  -----------------  -----------------  -----------------
         C            0.914897558736    -0.785689896159    -0.566051577296    12.000000000000
         C           -0.149131998904    -0.094750250004     0.022100404998    12.000000000000
         C           -1.416020703022    -0.836405592540     0.231689573059    12.000000000000
         O           -2.392202506806    -0.064205411645     0.780787393619    15.994914619570
         C           -0.004393390890     1.245922011855     0.394860551634    12.000000000000
         O           -1.595664169709    -2.011020402786    -0.047772542777    15.994914619570
         C            2.124570611408    -0.132653281978    -0.781967601540    12.000000000000
         C            2.275452588689     1.205113084211    -0.412339652508    12.000000000000
         H            0.775425078027    -1.826143370214    -0.844369272371     1.007825032230
         C            1.210944236156     1.890204327597     0.175071057424    12.000000000000
         H           -0.835744324201     1.773507981326     0.850662545770     1.007825032230
         H            1.328286415907     2.931464216186     0.463435862211     1.007825032230
         H           -3.165896851815    -0.658140311592     0.870442889086     1.007825032230
         H            2.952754780317    -0.667189526663    -1.239570380001     1.007825032230
         H            3.221472911000     1.713114537159    -0.581700057427     1.007825032230

  Basis Set: AUG-CC-PVTZ
    Blend: AUG-CC-PVTZ
  Basis Set: (AUG-CC-PVTZ AUX)
    Blend: AUG-CC-PVTZ-JKFIT
	 Reference Energy          =    -418.4734629676702298 [Eh]
	 Singles Energy            =      -0.0000000000000000 [Eh]
	 Same-Spin Energy          =      -0.4104737046391361 [Eh]
	 Opposite-Spin Energy      =      -1.1778169272495302 [Eh]
	 Correlation Energy        =      -1.5882906318886665 [Eh]
	 Total Energy              =    -420.0617535995588696 [Eh]

	 ================> DF-SCS-MP2 Energies <==================
	-----------------------------------------------------------
	 SCS Same-Spin Scale       =       0.3333333333333333 [-]
	 SCS Opposite-Spin Scale   =       1.2000000000000000 [-]
	 SCS Same-Spin Energy      =      -0.1368245682130454 [Eh]
	 SCS Opposite-Spin Energy  =      -1.4133803126994362 [Eh]
	 SCS Correlation Energy    =      -1.5502048809124815 [Eh]
	 SCS Total Energy          =    -420.0236678485827042 [Eh]
	-----------------------------------------------------------

 Dipole X            :         -3.6722375            3.9897372            0.3174997
 Dipole Y            :         -2.3509351            3.0523790            0.7014439
 Dipole Z            :          0.5458924           -0.4474930            0.0983995
 Magnitude           :                                                    0.7762165

  Mulliken Charges: (a.u.)
   Center  Symbol    Alpha    Beta     Spin     Total
       1     C     3.52149  3.52149  0.00000 -1.04298
       2     C     2.11085  2.11085  0.00000  1.77830
       3     C     2.84795  2.84795  0.00000  0.30411
       4     O     4.20138  4.20138  0.00000 -0.40275
       5     C     3.37274  3.37274  0.00000 -0.74549
       6     O     4.38666  4.38666  0.00000 -0.77333
       7     C     3.22299  3.22299  0.00000 -0.44597
       8     C     3.14812  3.14812  0.00000 -0.29624
       9     H     0.36432  0.36432  0.00000  0.27136
      10     C     3.28508  3.28508  0.00000 -0.57017
      11     H     0.35301  0.35301  0.00000  0.29397
      12     H     0.26045  0.26045  0.00000  0.47909
      13     H     0.36973  0.36973  0.00000  0.26054
      14     H     0.26020  0.26020  0.00000  0.47960
      15     H     0.29502  0.29502  0.00000  0.40997

   Total alpha = 32.00000, Total beta = 32.00000, Total charge = -0.00000

  Basis Set: AUG-CC-PVTZ
    Blend: AUG-CC-PVTZ
*** Psi4 exiting successfully. Buy a developer a beer!
