                               Psi4 1.6 release

  ==> Input File <==

--------------------------------------------------------------------------
molecule {
0 1
 C   -6.081500    0.535200   -0.223500
 C   -7.161900    1.216300    0.371500
 C   -8.427800    0.459100    0.585700
 O   -9.386700    1.266900    1.102500
 C   -7.027200    2.569200    0.751000
 O   -8.557700   -0.725300    0.321900
 C   -4.889100    1.211400   -0.436900
 C   -4.787200    2.548300   -0.037000
 H   -6.205200   -0.506500   -0.499700
 C   -5.824800    3.248400    0.548200
 H   -7.857200    3.101100    1.211800
 H   -5.717600    4.286100    0.844400
 H  -10.286400    0.903800    1.299700
 H   -4.037000    0.704400   -0.913100
 H   -3.831500    3.069000   -0.196800
}
set {
  geom_maxiter 400
  g_convergence GAU_LOOSE
  dynamic_level 1
}
geometric_keywords = {
 'coordsys' : 'tric',
 'convergence_cmax' : 1e0,
 'convergence_set' : 'GAU_LOOSE',
 'convergence_energy' : 1e-4,
}
memory 20GB
set_num_threads(5)
psi4_io.set_default_path("/scratch/liuchw/Psi4-13_34_Index_0-farH_in17")
basis {
assign 6-31G*
}
opt_finished = False
if not opt_finished:
    try:
        ener, opt_hist = optimize('mp2',engine='geometric',optimizer_keywords=geometric_keywords, return_history=True)
        opt_finished = len(opt_hist['energy']) < 400
    except Exception as e:
        core.print_out('Exception: %s'%(e))
if not opt_finished:
    try:
        optimize('mp2')
    except:
        set opt_coordinates both
        optimize('mp2')
    opt_finished = True
clean()
assert opt_finished

--------------------------------------------------------------------------

    Molecular point group: c1
  Charge       = 0
  Multiplicity = 1
  Basis Set: ANONYMOUSFADC696E
    Blend: 6-31G*
  Basis Set: (ANONYMOUSFADC696E AUX)
    Blend: CC-PVDZ-JKFIT
  @DF-RHF Final Energy:  -418.31185303947973
    Total Energy =                       -418.3118530394797290
 Dipole X            :         -3.7152965            3.8560120            0.1407155
 Dipole Y            :         -2.4396624            3.3690602            0.9293978
 Dipole Z            :          0.5521337           -0.3529531            0.1991806
 Magnitude           :                                                    0.9608611
  Basis Set: (ANONYMOUSFADC696E AUX)
    Blend: CC-PVDZ-RI
    Molecular point group: c1
  Basis Set: ANONYMOUSFADC696E
    Blend: 6-31G*
  Basis Set: (ANONYMOUSFADC696E AUX)
    Blend: CC-PVDZ-JKFIT
  Basis Set: (ANONYMOUSFADC696E AUX)
    Blend: CC-PVDZ-JKFIT
	 Reference Energy          =    -418.3118530394797290 [Eh]
	 Singles Energy            =      -0.0000000000000000 [Eh]
	 Same-Spin Energy          =      -0.3464517798299088 [Eh]
	 Opposite-Spin Energy      =      -0.9285277105913247 [Eh]
	 Correlation Energy        =      -1.2749794904212335 [Eh]
	 Total Energy              =    -419.5868325299009598 [Eh]
	 SCS Total Energy          =    -419.5415702187992792 [Eh]
  @DF-RHF Final Energy:  -418.31282852942377
    Total Energy =                       -418.3128285294237685
  @DF-RHF Final Energy:  -418.32037754016545
    Total Energy =                       -418.3203775401655093
  @DF-RHF Final Energy:  -418.32000441596989
    Total Energy =                       -418.3200044159698336
  @DF-RHF Final Energy:  -418.31953031844398
    Total Energy =                       -418.3195303184439808
  @DF-RHF Final Energy:  -418.32018250721069
    Total Energy =                       -418.3201825072106885
  @DF-RHF Final Energy:  -418.32012271226489
    Total Energy =                       -418.3201227122649470
  @DF-RHF Final Energy:  -418.31994385334986
    Total Energy =                       -418.3199438533498551
  Charge       = 0
  Multiplicity = 1
  Basis Set: ANONYMOUSFADC696E
    Blend: 6-31G*
  Basis Set: (ANONYMOUSFADC696E AUX)
    Blend: CC-PVDZ-JKFIT

    Orbital Energies [Eh]
    ---------------------

    Doubly Occupied:

       1A    -20.620391     2A    -20.554457     3A    -11.394290
       4A    -11.255811     5A    -11.255678     6A    -11.254469
       7A    -11.252296     8A    -11.246735     9A    -11.245834
      10A     -1.457768    11A     -1.351925    12A     -1.165576
      13A     -1.045685    14A     -1.026294    15A     -0.894774
      16A     -0.839636    17A     -0.796042    18A     -0.725442
      19A     -0.698710    20A     -0.670763    21A     -0.635246
      22A     -0.626949    23A     -0.620554    24A     -0.599893
      25A     -0.580626    26A     -0.522288    27A     -0.512929
      28A     -0.503495    29A     -0.477034    30A     -0.450566
      31A     -0.349623    32A     -0.344547

  @DF-RHF Final Energy:  -418.32006916533720

   => Energetics <=

    Nuclear Repulsion Energy =            404.6663116562210689
    One-Electron Energy =               -1372.0201124205575525
    Two-Electron Energy =                 549.0337315989993385
    Total Energy =                       -418.3200691653371450
 Dipole X            :         -2.3716380            2.7559968            0.3843588
 Dipole Y            :         -4.8294412            5.6405919            0.8111507
 Dipole Z            :         -0.2366969            0.3447823            0.1080854
 Magnitude           :                                                    0.9040905
  Basis Set: (ANONYMOUSFADC696E AUX)
    Blend: CC-PVDZ-RI
    Molecular point group: c1
  Basis Set: ANONYMOUSFADC696E
    Blend: 6-31G*
  Basis Set: (ANONYMOUSFADC696E AUX)
    Blend: CC-PVDZ-JKFIT
  Basis Set: (ANONYMOUSFADC696E AUX)
    Blend: CC-PVDZ-JKFIT
	 Reference Energy          =    -418.3200691653372019 [Eh]
	 Singles Energy            =      -0.0000000000000000 [Eh]
	 Same-Spin Energy          =      -0.3465127511563915 [Eh]
	 Opposite-Spin Energy      =      -0.9279784163012211 [Eh]
	 Correlation Energy        =      -1.2744911674576127 [Eh]
	 Total Energy              =    -419.5945603327947993 [Eh]

	 ================> DF-SCS-MP2 Energies <==================
	-----------------------------------------------------------
	 SCS Same-Spin Scale       =       0.3333333333333333 [-]
	 SCS Opposite-Spin Scale   =       1.2000000000000000 [-]
	 SCS Same-Spin Energy      =      -0.1155042503854638 [Eh]
	 SCS Opposite-Spin Energy  =      -1.1135740995614654 [Eh]
	 SCS Correlation Energy    =      -1.2290783499469291 [Eh]
	 SCS Total Energy          =    -419.5491475152841190 [Eh]
	-----------------------------------------------------------

  -Total Gradient:
     Atom            X                  Y                   Z
    ------   -----------------  -----------------  -----------------
       1       -0.000205319291    -0.000382935373    -0.000127213658
       2        0.000175818079     0.000217153515    -0.000015606809
       3        0.000118644336    -0.000075055618    -0.000066051434
       4       -0.000083737384    -0.000025185989    -0.000069740907
       5        0.000045110289     0.000067776461     0.000095333860
       6        0.000040606827     0.000010921371     0.000070624522
       7       -0.000241455065     0.000160947211     0.000146550255
       8        0.000109137722     0.000052912785    -0.000028373076
       9       -0.000007089232    -0.000063833679    -0.000009677390
      10        0.000010525745     0.000017390717     0.000007029766
      11        0.000032297460     0.000015243669    -0.000012349346
      12        0.000011728862    -0.000001056987    -0.000000994378
      13        0.000029781016    -0.000020921035    -0.000005906787
      14       -0.000044407638     0.000000558370     0.000010053020
      15        0.000008358272     0.000026084583     0.000006322362

    Molecular point group: c1

    Geometry (in Angstrom), charge = 0, multiplicity = 1:

    C            0.904696506670    -0.764289532862    -0.559500733024
    C           -0.159333050970    -0.073349886707     0.028651249270
    C           -1.426221755088    -0.815005229243     0.238240417331
    O           -2.402403558872    -0.042805048348     0.787338237891
    C           -0.014594442956     1.267322375152     0.401411395906
    O           -1.605865221775    -1.989620039489    -0.041221698505
    C            2.114369559342    -0.111252918681    -0.775416757268
    C            2.265251536623     1.226513447508    -0.405788808236
    H            0.765224025961    -1.804743006917    -0.837818428099
    C            1.200743184090     1.911604690894     0.181621901696
    H           -0.845945376267     1.794908344623     0.857213390042
    H            1.318085363841     2.952864579483     0.469986706483
    H           -3.176097903881    -0.636739948295     0.876993733358
    H            2.942553728251    -0.645789163366    -1.233019535729
    H            3.211271858934     1.734514900456    -0.575149213155

*** Psi4 exiting successfully. Buy a developer a beer!
