                               Psi4 1.6 release

  ==> Input File <==

--------------------------------------------------------------------------
molecule {
0 1
C 0.90469650667 -0.764289532862 -0.559500733024
C -0.15933305097 -0.073349886707 0.02865124927
C -1.426221755088 -0.815005229243 0.238240417331
O -2.402403558872 -0.042805048348 0.787338237891
C -0.014594442956 1.267322375152 0.401411395906
O -1.605865221775 -1.989620039489 -0.041221698505
C 2.114369559342 -0.111252918681 -0.775416757268
C 2.265251536623 1.226513447508 -0.405788808236
H 0.765224025961 -1.804743006917 -0.837818428099
C 1.20074318409 1.911604690894 0.181621901696
H -0.845945376267 1.794908344623 0.857213390042
H 1.318085363841 2.952864579483 0.469986706483
H -3.176097903881 -0.636739948295 0.876993733358
H 2.942553728251 -0.645789163366 -1.233019535729
H 3.211271858934 1.734514900456 -0.575149213155
no_reorient
}
memory 20GB
set_num_threads(5)
psi4_io.set_default_path("/scratch/liuchw/Psi4-13_34_Index_0-farH_in17")
set freeze_core True
set PROPERTIES_ORIGIN ["COM"]
set cubeprop_tasks ['esp']
set basis 6-311G**
E, wfn = properties('mp2',properties=['dipole'],return_wfn=True)
cubeprop(wfn)
fchk(wfn, "13_34_Index_0-dma.fchk")
clean()
--------------------------------------------------------------------------

    Molecular point group: c1
  Charge       = 0
  Multiplicity = 1
  Basis Set: 6-311G**
    Blend: 6-311G**
  Basis Set: (6-311G** AUX)
    Blend: CC-PVTZ-JKFIT

    Orbital Energies [Eh]
    ---------------------

    Doubly Occupied:

       1A    -20.610149     2A    -20.543607     3A    -11.393118
       4A    -11.257196     5A    -11.256527     6A    -11.256027
       7A    -11.253468     8A    -11.247705     9A    -11.246853
      10A     -1.460448    11A     -1.354825    12A     -1.170215
      13A     -1.049895    14A     -1.030607    15A     -0.898563
      16A     -0.843915    17A     -0.799929    18A     -0.729882
      19A     -0.702908    20A     -0.674612    21A     -0.639409
      22A     -0.630503    23A     -0.625628    24A     -0.603959
      25A     -0.584876    26A     -0.526385    27A     -0.517315
      28A     -0.507393    29A     -0.481134    30A     -0.454894
      31A     -0.354250    32A     -0.349180

  @DF-RHF Final Energy:  -418.42232076948767

   => Energetics <=

    Nuclear Repulsion Energy =            404.6663116562389746
    One-Electron Energy =               -1372.0665165041800719
    Two-Electron Energy =                 548.9778840784533713
    Total Energy =                       -418.4223207694876692
  Basis Set: (6-311G** AUX)
    Blend: CC-PVTZ-RI
    Molecular point group: c1

    Geometry (in Angstrom), charge = 0, multiplicity = 1:

       Center              X                  Y                   Z               Mass
    ------------   -----------------  -----------------  -----------------  -----------------
         C            0.914897558736    -0.785689896159    -0.566051577296    12.000000000000
         C           -0.149131998904    -0.094750250004     0.022100404998    12.000000000000
         C           -1.416020703022    -0.836405592540     0.231689573059    12.000000000000
         O           -2.392202506806    -0.064205411645     0.780787393619    15.994914619570
         C           -0.004393390890     1.245922011855     0.394860551634    12.000000000000
         O           -1.595664169709    -2.011020402786    -0.047772542777    15.994914619570
         C            2.124570611408    -0.132653281978    -0.781967601540    12.000000000000
         C            2.275452588689     1.205113084211    -0.412339652508    12.000000000000
         H            0.775425078027    -1.826143370214    -0.844369272371     1.007825032230
         C            1.210944236156     1.890204327597     0.175071057424    12.000000000000
         H           -0.835744324201     1.773507981326     0.850662545770     1.007825032230
         H            1.328286415907     2.931464216186     0.463435862211     1.007825032230
         H           -3.165896851815    -0.658140311592     0.870442889086     1.007825032230
         H            2.952754780317    -0.667189526663    -1.239570380001     1.007825032230
         H            3.221472911000     1.713114537159    -0.581700057427     1.007825032230

  Basis Set: 6-311G**
    Blend: 6-311G**
  Basis Set: (6-311G** AUX)
    Blend: CC-PVTZ-JKFIT
	 Reference Energy          =    -418.4223207694876692 [Eh]
	 Singles Energy            =      -0.0000000000000000 [Eh]
	 Same-Spin Energy          =      -0.3619785457210126 [Eh]
	 Opposite-Spin Energy      =      -0.9807279561269934 [Eh]
	 Correlation Energy        =      -1.3427065018480060 [Eh]
	 Total Energy              =    -419.7650272713356685 [Eh]

	 ================> DF-SCS-MP2 Energies <==================
	-----------------------------------------------------------
	 SCS Same-Spin Scale       =       0.3333333333333333 [-]
	 SCS Opposite-Spin Scale   =       1.2000000000000000 [-]
	 SCS Same-Spin Energy      =      -0.1206595152403375 [Eh]
	 SCS Opposite-Spin Energy  =      -1.1768735473523919 [Eh]
	 SCS Correlation Energy    =      -1.2975330625927295 [Eh]
	 SCS Total Energy          =    -419.7198538320803891 [Eh]
	-----------------------------------------------------------

 Dipole X            :         -3.7669388            3.9897372            0.2227985
 Dipole Y            :         -2.4401341            3.0523790            0.6122450
 Dipole Z            :          0.5519239           -0.4474930            0.1044310
 Magnitude           :                                                    0.6598400
  Basis Set: 6-311G**
    Blend: 6-311G**
*** Psi4 exiting successfully. Buy a developer a beer!
