   * xtb version 6.5.0 (97a52f5) compiled by 'conda@d2599ee0d4f4' on 2022-05-15
          program call               : /home/liuchw/anaconda3/envs/xtbenv/bin/xtb --gfn 2 --chrg 0 --uhf 0 13_34_Index_0-opt-2-3-241_preQMOPTprefit_xyzformat.xyz --opt --input xtb-opt-2-3-241_constr.txt

   ID    Z sym.   atoms
    1    6 C      1-3, 5, 7, 8, 10
    2    8 O      4, 6
    3    1 H      9, 11-15
constraining angle 1 2 3 4 to  241.0014950°, actual value: -118.9985050°
constraining angle 2 3 4 13 to  179.9946666°, actual value:  179.9946666°

          :  Hamiltonian                  GFN2-xTB          :
 * total energy  :   -26.1629153 Eh     change       -0.2617142E-09 Eh
 * total energy  :   -26.1680735 Eh     change       -0.5158200E-02 Eh
 * total energy  :   -26.1684201 Eh     change       -0.3465543E-03 Eh
 * total energy  :   -26.1684983 Eh     change       -0.7818376E-04 Eh
 * total energy  :   -26.1685291 Eh     change       -0.3084877E-04 Eh
 * total energy  :   -26.1685329 Eh     change       -0.3803926E-05 Eh
 * total energy  :   -26.1685346 Eh     change       -0.1715719E-05 Eh
   *** GEOMETRY OPTIMIZATION CONVERGED AFTER 7 ITERATIONS ***

 final structure:
================
15
 xtb: 6.5.0 (97a52f5)
C            0.85916886102782       -0.72836113247143       -0.59536130424647
C           -0.11539493800826       -0.09600800779326        0.16810487711299
C           -1.38586388302887       -0.81147544513455        0.46545150357413
O           -2.44980184351741       -0.16134795347979       -0.02732964774449
C            0.07546587966620        1.21223758576896        0.59667354491817
O           -1.47691656941112       -1.86473393322038        1.03836377496411
C            2.02842096524816       -0.05903663050468       -0.90878998389388
C            2.22787756000407        1.23737294266936       -0.46333487549352
H            0.69696392224077       -1.74180956475082       -0.93037810123835
C            1.25315429307115        1.87035385145613        0.29033350261169
H           -0.69157285180804        1.70344852237853        1.17630577479090
H            1.40753378494992        2.88236240202155        0.63425627059854
H           -3.26592045813934       -0.64518268408073        0.17784240581324
H            2.78511173309338       -0.54991418428971       -1.50251963769279
H            3.14351054461155        1.75622724143083       -0.70607511407424

          :  Hamiltonian                  GFN2-xTB          :
         :: total energy             -26.168534632430 Eh    ::
         :: gradient norm              0.000431742020 Eh/a0 ::
         :: HOMO-LUMO gap              4.236132599931 eV    ::
         :: SCC energy               -26.550118224309 Eh    ::
         :: -> dispersion             -0.011800488928 Eh    ::
         :: repulsion energy           0.381559786769 Eh    ::

    * Orbital Energies and Occupations

         #    Occupation            Energy/Eh            Energy/eV
      -------------------------------------------------------------
         1        2.0000           -0.7479645             -20.3531
       ...           ...                  ...                  ...
        11        2.0000           -0.5651999             -15.3799
        12        2.0000           -0.5342836             -14.5386
        13        2.0000           -0.5083860             -13.8339
        14        2.0000           -0.5050047             -13.7419
        15        2.0000           -0.4944387             -13.4544
        16        2.0000           -0.4909514             -13.3595
        17        2.0000           -0.4905831             -13.3494
        18        2.0000           -0.4788714             -13.0308
        19        2.0000           -0.4539808             -12.3534
        20        2.0000           -0.4363534             -11.8738
        21        2.0000           -0.4211299             -11.4595
        22        2.0000           -0.4189948             -11.4014
        23        2.0000           -0.4152986             -11.3008 (HOMO)
        24                         -0.2596236              -7.0647 (LUMO)
        25                         -0.2370364              -6.4501
        26                         -0.2165281              -5.8920
        27                         -0.1064580              -2.8969
        28                          0.0567279               1.5436
        29                          0.1152640               3.1365
        30                          0.1260875               3.4310
        31                          0.1603789               4.3641
        32                          0.1621859               4.4133
        33                          0.1808032               4.9199
        34                          0.1931514               5.2559
       ...                                ...                  ...
        42                          0.6661498              18.1269
      -------------------------------------------------------------
                  HL-Gap            0.1556750 Eh            4.2361 eV

     #   Z          covCN         q      C6AA      α(0)
     1   6 C        2.923    -0.020    28.507     8.756
     2   6 C        2.974    -0.011    28.275     8.722
     3   6 C        2.696     0.361    20.879     7.479
     4   8 O        1.660    -0.376    20.394     6.096
     5   6 C        2.922    -0.021    28.520     8.758
     6   8 O        0.856    -0.406    21.801     6.260
     7   6 C        2.920    -0.025    28.617     8.772
     8   6 C        2.920    -0.024    28.604     8.770
     9   1 H        0.926     0.047     2.356     2.400
    10   6 C        2.920    -0.025    28.631     8.775
    11   1 H        0.926     0.045     2.389     2.417
    12   1 H        0.926     0.042     2.423     2.434
    13   1 H        0.804     0.329     0.640     1.257
    14   1 H        0.926     0.043     2.410     2.428
    15   1 H        0.926     0.041     2.435     2.440

Wiberg/Mayer (AO) data.
largest (>0.10) Wiberg bond orders for each atom

     #   Z sym  total        # sym  WBO       # sym  WBO       # sym  WBO
 ---------------------------------------------------------------------------
     1   6 C    3.991 --     7 C    1.445     2 C    1.400     9 H    0.969
                            10 C    0.111
     2   6 C    3.988 --     5 C    1.402     1 C    1.400     3 C    0.975
                             8 C    0.109
     3   6 C    3.911 --     6 O    1.763     4 O    1.127     2 C    0.975
     4   8 O    2.201 --     3 C    1.127    13 H    0.866     6 O    0.176
     5   6 C    3.991 --    10 C    1.445     2 C    1.402    11 H    0.970
                             7 C    0.111
     6   8 O    2.043 --     3 C    1.763     4 O    0.176
     7   6 C    3.992 --     1 C    1.445     8 C    1.438    14 H    0.970
                             5 C    0.111
     8   6 C    3.992 --    10 C    1.438     7 C    1.438    15 H    0.971
                             2 C    0.109
     9   1 H    0.998 --     1 C    0.969
    10   6 C    3.992 --     5 C    1.445     8 C    1.438    12 H    0.970
                             1 C    0.111
    11   1 H    0.998 --     5 C    0.970
    12   1 H    0.998 --    10 C    0.970
    13   1 H    0.891 --     4 O    0.866
    14   1 H    0.998 --     7 C    0.970
    15   1 H    0.998 --     8 C    0.971
 ---------------------------------------------------------------------------

molecular dipole:
                 x           y           z       tot (Debye)
 q only:        0.197       0.739      -0.414
   full:        0.035       0.732      -0.412       2.137

           -------------------------------------------------
          | TOTAL ENERGY              -26.168534632430 Eh   |
          | GRADIENT NORM               0.000431742020 Eh/α |
          | HOMO-LUMO GAP               4.236132599931 eV   |
           -------------------------------------------------

 * finished run on 2023/11/18 at 08:13:27.782
