   * xtb version 6.5.0 (97a52f5) compiled by 'conda@d2599ee0d4f4' on 2022-05-15
          program call               : /home/liuchw/anaconda3/envs/xtbenv/bin/xtb --gfn 2 --chrg 0 --uhf 0 13_34_Index_0-opt-2-3-091_preQMOPTprefit_xyzformat.xyz --opt --input xtb-opt-2-3-091_constr.txt

   ID    Z sym.   atoms
    1    6 C      1-3, 5, 7, 8, 10
    2    8 O      4, 6
    3    1 H      9, 11-15
constraining angle 1 2 3 4 to   90.9994368°, actual value:   90.9994368°
constraining angle 2 3 4 13 to  180.0010055°, actual value: -179.9989945°

          :  Hamiltonian                  GFN2-xTB          :
 * total energy  :   -26.1611414 Eh     change       -0.2515570E-09 Eh
 * total energy  :   -26.1662981 Eh     change       -0.5156665E-02 Eh
 * total energy  :   -26.1666263 Eh     change       -0.3282712E-03 Eh
 * total energy  :   -26.1666953 Eh     change       -0.6893776E-04 Eh
 * total energy  :   -26.1667201 Eh     change       -0.2479994E-04 Eh
 * total energy  :   -26.1667212 Eh     change       -0.1140302E-05 Eh
   *** GEOMETRY OPTIMIZATION CONVERGED AFTER 6 ITERATIONS ***

 final structure:
================
15
 xtb: 6.5.0 (97a52f5)
C            0.87905316952052       -0.75736226634409       -0.39508546173819
C           -0.22048070234878        0.02649974704356       -0.07057276589465
C           -1.56925143406734       -0.60001984064111        0.06098109329191
O           -1.81272985660763       -0.99115793161927        1.31830912127305
C           -0.06976535720376        1.39424969240665        0.11710659972810
O           -2.35910081053624       -0.74931802378139       -0.83154927742462
C            2.12553006158798       -0.17118568388727       -0.52943480093108
C            2.27696755321088        1.19239006760166       -0.34189661776855
H            0.75649092482383       -1.81995929363340       -0.54302412554248
C            1.17982771623333        1.97325818604092       -0.01945452705522
H           -0.92802688813115        2.00026445939185        0.36642608794123
H            1.29586246031828        3.03687708135089        0.12632884914674
H           -2.69313528406980       -1.39595652897308        1.38551112790540
H            2.97979604112459       -0.78157033886163       -0.78173923906007
H            3.25069840614530        1.64712568390572       -0.44836805387156

          :  Hamiltonian                  GFN2-xTB          :
         :: total energy             -26.166721203515 Eh    ::
         :: gradient norm              0.000349590828 Eh/a0 ::
         :: HOMO-LUMO gap              4.751867862777 eV    ::
         :: SCC energy               -26.548664776586 Eh    ::
         :: -> dispersion             -0.011807959885 Eh    ::
         :: repulsion energy           0.381922333307 Eh    ::

    * Orbital Energies and Occupations

         #    Occupation            Energy/Eh            Energy/eV
      -------------------------------------------------------------
         1        2.0000           -0.7503514             -20.4181
       ...           ...                  ...                  ...
        11        2.0000           -0.5665265             -15.4160
        12        2.0000           -0.5352957             -14.5661
        13        2.0000           -0.5081684             -13.8280
        14        2.0000           -0.5053056             -13.7501
        15        2.0000           -0.4950220             -13.4702
        16        2.0000           -0.4906781             -13.3520
        17        2.0000           -0.4900927             -13.3361
        18        2.0000           -0.4812917             -13.0966
        19        2.0000           -0.4550449             -12.3824
        20        2.0000           -0.4363770             -11.8744
        21        2.0000           -0.4203845             -11.4392
        22        2.0000           -0.4183326             -11.3834
        23        2.0000           -0.4151552             -11.2969 (HOMO)
        24                         -0.2405273              -6.5451 (LUMO)
        25                         -0.2393549              -6.5132
        26                         -0.2365792              -6.4376
        27                         -0.1084126              -2.9501
        28                          0.0528180               1.4373
        29                          0.1143361               3.1112
        30                          0.1273573               3.4656
        31                          0.1596826               4.3452
        32                          0.1615207               4.3952
        33                          0.1805348               4.9126
        34                          0.1961052               5.3363
       ...                                ...                  ...
        42                          0.6610112              17.9870
      -------------------------------------------------------------
                  HL-Gap            0.1746279 Eh            4.7519 eV

     #   Z          covCN         q      C6AA      α(0)
     1   6 C        2.922    -0.021    28.537     8.760
     2   6 C        2.974    -0.009    28.233     8.716
     3   6 C        2.695     0.363    20.834     7.470
     4   8 O        1.660    -0.374    20.348     6.089
     5   6 C        2.922    -0.021    28.537     8.760
     6   8 O        0.856    -0.401    21.705     6.246
     7   6 C        2.920    -0.024    28.615     8.772
     8   6 C        2.920    -0.025    28.640     8.776
     9   1 H        0.926     0.041     2.431     2.438
    10   6 C        2.920    -0.025    28.616     8.772
    11   1 H        0.926     0.041     2.432     2.438
    12   1 H        0.926     0.042     2.418     2.432
    13   1 H        0.804     0.330     0.639     1.255
    14   1 H        0.926     0.042     2.418     2.432
    15   1 H        0.926     0.041     2.441     2.443

Wiberg/Mayer (AO) data.
largest (>0.10) Wiberg bond orders for each atom

     #   Z sym  total        # sym  WBO       # sym  WBO       # sym  WBO
 ---------------------------------------------------------------------------
     1   6 C    3.991 --     7 C    1.442     2 C    1.408     9 H    0.970
                            10 C    0.113
     2   6 C    3.988 --     5 C    1.408     1 C    1.408     3 C    0.958
                             8 C    0.111
     3   6 C    3.909 --     6 O    1.774     4 O    1.133     2 C    0.958
     4   8 O    2.206 --     3 C    1.133    13 H    0.865     6 O    0.179
     5   6 C    3.991 --    10 C    1.442     2 C    1.408    11 H    0.970
                             7 C    0.113
     6   8 O    2.049 --     3 C    1.774     4 O    0.179
     7   6 C    3.992 --     1 C    1.442     8 C    1.440    14 H    0.970
                             5 C    0.113
     8   6 C    3.992 --    10 C    1.440     7 C    1.440    15 H    0.971
                             2 C    0.111
     9   1 H    0.998 --     1 C    0.970
    10   6 C    3.992 --     5 C    1.442     8 C    1.440    12 H    0.970
                             1 C    0.113
    11   1 H    0.998 --     5 C    0.970
    12   1 H    0.997 --    10 C    0.970
    13   1 H    0.890 --     4 O    0.865
    14   1 H    0.997 --     7 C    0.970
    15   1 H    0.998 --     8 C    0.971
 ---------------------------------------------------------------------------

molecular dipole:
                 x           y           z       tot (Debye)
 q only:        0.601       0.140       0.557
   full:        0.472       0.065       0.642       2.032

           -------------------------------------------------
          | TOTAL ENERGY              -26.166721203515 Eh   |
          | GRADIENT NORM               0.000349590828 Eh/α |
          | HOMO-LUMO GAP               4.751867862777 eV   |
           -------------------------------------------------

 * finished run on 2023/11/18 at 08:15:15.836
