                               Psi4 1.6 release

  ==> Input File <==

--------------------------------------------------------------------------
molecule {
0 1
 C    0.912673   -0.763153   -0.537876
 C   -0.180917   -0.052444   -0.050066
 C   -1.465787   -0.763905    0.133216
 O   -2.216478   -0.242329    1.116971
 C   -0.043229    1.290179    0.289754
 O   -1.814876   -1.731770   -0.494561
 C    2.131370   -0.130764   -0.693862
 C    2.263358    1.209742   -0.366809
 H    0.786567   -1.804745   -0.791544
 C    1.177004    1.918130    0.121903
 H   -0.893655    1.832165    0.673458
 H    1.283801    2.962219    0.376271
 H   -3.044625   -0.741018    1.197706
 H    2.980734   -0.681732   -1.069252
 H    3.215794    1.703560   -0.491768
}
memory 20GB
set_num_threads(5)
psi4_io.set_default_path("/scratch/liuchw/Psi4-13_34_Index_0-farH_in17")
set freeze_core True
E, wfn = energy('wb97x-d/6-311+G*',return_wfn=True)
oeprop(wfn,"WIBERG_LOWDIN_INDICES")
clean()
--------------------------------------------------------------------------

    Molecular point group: c1

    Geometry (in Angstrom), charge = 0, multiplicity = 1:

       Center              X                  Y                   Z               Mass
    ------------   -----------------  -----------------  -----------------  -----------------
         C            0.933855232795    -0.797682880523    -0.510052938418    12.000000000000
         C           -0.159734767205    -0.086973880523    -0.022242938418    12.000000000000
         C           -1.444604767205    -0.798434880523     0.161039061582    12.000000000000
         O           -2.195295767205    -0.276858880523     1.144794061582    15.994914619570
         C           -0.022046767205     1.255649119477     0.317577061582    12.000000000000
         O           -1.793693767205    -1.766299880523    -0.466737938418    15.994914619570
         C            2.152552232795    -0.165293880523    -0.666038938418    12.000000000000
         C            2.284540232795     1.175212119477    -0.338985938418    12.000000000000
         H            0.807749232795    -1.839274880523    -0.763720938418     1.007825032230
         C            1.198186232795     1.883600119477     0.149726061582    12.000000000000
         H           -0.872472767205     1.797635119477     0.701281061582     1.007825032230
         H            1.304983232795     2.927689119477     0.404094061582     1.007825032230
         H           -3.023442767205    -0.775547880523     1.225529061582     1.007825032230
         H            3.001916232795    -0.716261880523    -1.041428938418     1.007825032230
         H            3.236976232795     1.669030119477    -0.463944938418     1.007825032230

  Charge       = 0
  Multiplicity = 1
  Basis Set: 6-311+G*
    Blend: 6-311+G*
  Basis Set: (6-311+G* AUX)
    Blend: HEAVY-AUG-CC-PVTZ-JKFIT

    Orbital Energies [Eh]
    ---------------------

    Doubly Occupied:

       1A    -19.305024     2A    -19.241960     3A    -10.428765
       4A    -10.312571     5A    -10.304792     6A    -10.304133
       7A    -10.303774     8A    -10.300581     9A    -10.300322
      10A     -1.227065    11A     -1.130947    12A     -0.982849
      13A     -0.884058    14A     -0.866757    15A     -0.773877
      16A     -0.721657    17A     -0.696486    18A     -0.641412
      19A     -0.593415    20A     -0.578220    21A     -0.564811
      22A     -0.548312    23A     -0.537923    24A     -0.525745
      25A     -0.497443    26A     -0.474350    27A     -0.455979
      28A     -0.442033    29A     -0.418012    30A     -0.376460
      31A     -0.347832    32A     -0.345803

  @DF-RKS Final Energy:  -420.78186878215314

   => Energetics <=

    Nuclear Repulsion Energy =            406.9069907510685766
    One-Electron Energy =               -1377.4808855431442680
    Two-Electron Energy =                 589.5456215407864420
    DFT Exchange-Correlation Energy =     -39.7473420068022065
    Empirical Dispersion Energy =          -0.0062535240617791
    VV10 Nonlocal Energy =                  0.0000000000000000
    Total Energy =                       -420.7818687821531967
 Dipole X            :         -3.8051393            4.1579245            0.3527852
 Dipole Y            :         -2.2230071            2.8619045            0.6388975
 Dipole Z            :          0.2992934            0.0612024            0.3604958
 Magnitude           :                                                    0.8140053
*** Psi4 exiting successfully. Buy a developer a beer!
