                               Psi4 1.6 release

  ==> Input File <==

--------------------------------------------------------------------------
molecule {
0 1
 C    0.648054   -0.549335   -0.770561
 C   -0.196327    0.058860    0.153713
 C   -1.489891   -0.554338    0.529200
 O   -2.023392   -1.296908   -0.454675
 C    0.199464    1.231716    0.791886
 O   -2.044389   -0.399767    1.588025
 C    1.868422    0.028328   -1.068321
 C    2.250936    1.206788   -0.447436
 H    0.341075   -1.466694   -1.248672
 C    1.416393    1.808011    0.481907
 H   -0.461318    1.676920    1.520169
 H    1.719459    2.723092    0.968452
 H   -2.866692   -1.675497   -0.160771
 H    2.525605   -0.442493   -1.784350
 H    3.204336    1.655452   -0.685022
}
memory 20GB
set_num_threads(5)
psi4_io.set_default_path("/scratch/liuchw/Psi4-13_34_Index_0-farH_in17")
set freeze_core True
E, wfn = energy('wb97x-d/6-311+G*',return_wfn=True)
oeprop(wfn,"WIBERG_LOWDIN_INDICES")
clean()
--------------------------------------------------------------------------

    Molecular point group: c1

    Geometry (in Angstrom), charge = 0, multiplicity = 1:

       Center              X                  Y                   Z               Mass
    ------------   -----------------  -----------------  -----------------  -----------------
         C            0.682484717307    -0.664974745957    -0.875213222311    12.000000000000
         C           -0.161896282693    -0.056779745957     0.049060777689    12.000000000000
         C           -1.455460282693    -0.669977745957     0.424547777689    12.000000000000
         O           -1.988961282693    -1.412547745957    -0.559327222311    15.994914619570
         C            0.233894717307     1.116076254043     0.687233777689    12.000000000000
         O           -2.009958282693    -0.515406745957     1.483372777689    15.994914619570
         C            1.902852717307    -0.087311745957    -1.172973222311    12.000000000000
         C            2.285366717307     1.091148254043    -0.552088222311    12.000000000000
         H            0.375505717307    -1.582333745957    -1.353324222311     1.007825032230
         C            1.450823717307     1.692371254043     0.377254777689    12.000000000000
         H           -0.426887282693     1.561280254043     1.415516777689     1.007825032230
         H            1.753889717307     2.607452254043     0.863799777689     1.007825032230
         H           -2.832261282693    -1.791136745957    -0.265423222311     1.007825032230
         H            2.560035717307    -0.558132745957    -1.889002222311     1.007825032230
         H            3.238766717307     1.539812254043    -0.789674222311     1.007825032230

  Charge       = 0
  Multiplicity = 1
  Basis Set: 6-311+G*
    Blend: 6-311+G*
  Basis Set: (6-311+G* AUX)
    Blend: HEAVY-AUG-CC-PVTZ-JKFIT

    Orbital Energies [Eh]
    ---------------------

    Doubly Occupied:

       1A    -19.304931     2A    -19.242054     3A    -10.428786
       4A    -10.312516     5A    -10.304880     6A    -10.304138
       7A    -10.303607     8A    -10.300555     9A    -10.300280
      10A     -1.226947    11A     -1.131046    12A     -0.982787
      13A     -0.883992    14A     -0.866697    15A     -0.773895
      16A     -0.721590    17A     -0.696496    18A     -0.641322
      19A     -0.593396    20A     -0.578139    21A     -0.564517
      22A     -0.548387    23A     -0.538043    24A     -0.525730
      25A     -0.497446    26A     -0.474330    27A     -0.455777
      28A     -0.441954    29A     -0.418050    30A     -0.376748
      31A     -0.347895    32A     -0.345582

  @DF-RKS Final Energy:  -420.78199133803184

   => Energetics <=

    Nuclear Repulsion Energy =            406.8764111813953264
    One-Electron Energy =               -1377.4217593304638285
    Two-Electron Energy =                 589.5168377721416846
    DFT Exchange-Correlation Energy =     -39.7472310177824255
    Empirical Dispersion Energy =          -0.0062499433226176
    VV10 Nonlocal Energy =                  0.0000000000000000
    Total Energy =                       -420.7819913380319576
 Dipole X            :         -3.8813868            4.3578765            0.4764896
 Dipole Y            :         -1.6850881            1.6565646           -0.0285234
 Dipole Z            :          1.2454517           -1.8874740           -0.6420223
 Magnitude           :                                                    0.8000304
*** Psi4 exiting successfully. Buy a developer a beer!
