   * xtb version 6.5.0 (97a52f5) compiled by 'conda@d2599ee0d4f4' on 2022-05-15
          program call               : /home/liuchw/anaconda3/envs/xtbenv/bin/xtb --gfn 2 --chrg 0 --uhf 0 13_34_Index_0-opt-2-3-001_preQMOPTprefit_xyzformat.xyz --opt --input xtb-opt-2-3-001_constr.txt

   ID    Z sym.   atoms
    1    6 C      1-3, 5, 7, 8, 10
    2    8 O      4, 6
    3    1 H      9, 11-15
constraining angle 1 2 3 4 to    1.0015975°, actual value:    1.0015975°
constraining angle 2 3 4 13 to  180.0001488°, actual value: -179.9998512°

          :  Hamiltonian                  GFN2-xTB          :
 * total energy  :   -26.1672091 Eh     change       -0.1802505E-09 Eh
 * total energy  :   -26.1726149 Eh     change       -0.5405797E-02 Eh
 * total energy  :   -26.1729678 Eh     change       -0.3529191E-03 Eh
 * total energy  :   -26.1730149 Eh     change       -0.4710247E-04 Eh
 * total energy  :   -26.1730320 Eh     change       -0.1706727E-04 Eh
 * total energy  :   -26.1730327 Eh     change       -0.7073296E-06 Eh
 * total energy  :   -26.1730332 Eh     change       -0.4627486E-06 Eh
   *** GEOMETRY OPTIMIZATION CONVERGED AFTER 7 ITERATIONS ***

 final structure:
================
15
 xtb: 6.5.0 (97a52f5)
C            0.60505766994946       -0.49508921482822       -0.83539098592064
C           -0.21075177452063        0.08101686351500        0.13529264038592
C           -1.53919249406686       -0.47827379511934        0.46498824865770
O           -1.84716820906991       -1.58013320380018       -0.23987811036362
C            0.21970471016491        1.21512891556480        0.82139910591994
O           -2.29617533836183       -0.01542161119444        1.28236499085044
C            1.83931063178876        0.06239483391161       -1.11222674954461
C            2.26451905799359        1.19008393147975       -0.42734265766730
H            0.26549389098021       -1.37236119639726       -1.36335821425036
C            1.45452002741918        1.76604057665754        0.53927953494343
H           -0.42988441461063        1.64447513465054        1.56907923735779
H            1.78843181074720        2.64448847992024        1.07107740858484
H           -2.72575935991178       -1.89699308165848        0.02077597406595
H            2.47352288350874       -0.38248322926193       -1.86470914882766
H            3.23010191798958        1.62126058656038       -0.64780629419183

          :  Hamiltonian                  GFN2-xTB          :
         :: total energy             -26.173033161557 Eh    ::
         :: gradient norm              0.000193684577 Eh/a0 ::
         :: HOMO-LUMO gap              3.812676061938 eV    ::
         :: SCC energy               -26.553370161026 Eh    ::
         :: -> dispersion             -0.011754713506 Eh    ::
         :: repulsion energy           0.380323033857 Eh    ::

    * Orbital Energies and Occupations

         #    Occupation            Energy/Eh            Energy/eV
      -------------------------------------------------------------
         1        2.0000           -0.7425365             -20.2054
       ...           ...                  ...                  ...
        11        2.0000           -0.5625992             -15.3091
        12        2.0000           -0.5304501             -14.4343
        13        2.0000           -0.5092570             -13.8576
        14        2.0000           -0.5037013             -13.7064
        15        2.0000           -0.4927147             -13.4074
        16        2.0000           -0.4920287             -13.3888
        17        2.0000           -0.4879276             -13.2772
        18        2.0000           -0.4741112             -12.9012
        19        2.0000           -0.4506234             -12.2621
        20        2.0000           -0.4343789             -11.8201
        21        2.0000           -0.4215411             -11.4707
        22        2.0000           -0.4197048             -11.4207
        23        2.0000           -0.4168618             -11.3434 (HOMO)
        24                         -0.2767486              -7.5307 (LUMO)
        25                         -0.2371159              -6.4523
        26                         -0.1914209              -5.2088
        27                         -0.0939908              -2.5576
        28                          0.0564031               1.5348
        29                          0.1185642               3.2263
        30                          0.1237130               3.3664
        31                          0.1570145               4.2726
        32                          0.1671010               4.5471
        33                          0.1815056               4.9390
        34                          0.1918906               5.2216
       ...                                ...                  ...
        42                          0.6864528              18.6793
      -------------------------------------------------------------
                  HL-Gap            0.1401133 Eh            3.8127 eV

     #   Z          covCN         q      C6AA      α(0)
     1   6 C        2.921    -0.020    28.519     8.757
     2   6 C        2.973    -0.017    28.424     8.745
     3   6 C        2.698     0.354    20.984     7.497
     4   8 O        1.659    -0.382    20.494     6.111
     5   6 C        2.924    -0.019    28.481     8.752
     6   8 O        0.857    -0.418    22.040     6.294
     7   6 C        2.919    -0.026    28.661     8.779
     8   6 C        2.920    -0.020    28.519     8.757
     9   1 H        0.926     0.058     2.226     2.333
    10   6 C        2.918    -0.025    28.633     8.775
    11   1 H        0.926     0.062     2.175     2.306
    12   1 H        0.926     0.043     2.409     2.427
    13   1 H        0.804     0.328     0.644     1.260
    14   1 H        0.926     0.041     2.431     2.438
    15   1 H        0.926     0.042     2.427     2.436

Wiberg/Mayer (AO) data.
largest (>0.10) Wiberg bond orders for each atom

     #   Z sym  total        # sym  WBO       # sym  WBO       # sym  WBO
 ---------------------------------------------------------------------------
     1   6 C    3.990 --     7 C    1.454     2 C    1.387     9 H    0.967
                            10 C    0.108
     2   6 C    3.988 --     1 C    1.387     5 C    1.384     3 C    1.012
                             8 C    0.102
     3   6 C    3.915 --     6 O    1.734     4 O    1.117     2 C    1.012
     4   8 O    2.191 --     3 C    1.117    13 H    0.868     6 O    0.168
     5   6 C    3.989 --    10 C    1.456     2 C    1.384    11 H    0.966
                             7 C    0.107
     6   8 O    2.029 --     3 C    1.734     4 O    0.168
     7   6 C    3.992 --     1 C    1.454     8 C    1.433    14 H    0.970
                             5 C    0.107
     8   6 C    3.992 --     7 C    1.433    10 C    1.432    15 H    0.971
                             2 C    0.102
     9   1 H    0.997 --     1 C    0.967
    10   6 C    3.992 --     5 C    1.456     8 C    1.432    12 H    0.970
                             1 C    0.108
    11   1 H    0.996 --     5 C    0.966
    12   1 H    0.998 --    10 C    0.970
    13   1 H    0.892 --     4 O    0.868
    14   1 H    0.998 --     7 C    0.970
    15   1 H    0.998 --     8 C    0.971
 ---------------------------------------------------------------------------

molecular dipole:
                 x           y           z       tot (Debye)
 q only:        0.724      -0.148      -0.545
   full:        0.632      -0.248      -0.572       2.256

           -------------------------------------------------
          | TOTAL ENERGY              -26.173033161557 Eh   |
          | GRADIENT NORM               0.000193684577 Eh/α |
          | HOMO-LUMO GAP               3.812676061938 eV   |
           -------------------------------------------------

 * finished run on 2023/11/18 at 08:14:15.548
