   * xtb version 6.5.0 (97a52f5) compiled by 'conda@d2599ee0d4f4' on 2022-05-15
          program call               : /home/liuchw/anaconda3/envs/xtbenv/bin/xtb --gfn 2 --chrg 0 --uhf 0 13_34_Index_0-opt-2-3-031_preQMOPTprefit_xyzformat.xyz --opt --input xtb-opt-2-3-031_constr.txt

   ID    Z sym.   atoms
    1    6 C      1-3, 5, 7, 8, 10
    2    8 O      4, 6
    3    1 H      9, 11-15
constraining angle 1 2 3 4 to   31.0134829°, actual value:   31.0134829°
constraining angle 2 3 4 13 to  179.9977898°, actual value:  179.9977898°

          :  Hamiltonian                  GFN2-xTB          :
 * total energy  :   -26.1661235 Eh     change       -0.2365965E-09 Eh
 * total energy  :   -26.1713903 Eh     change       -0.5266768E-02 Eh
 * total energy  :   -26.1717560 Eh     change       -0.3656448E-03 Eh
 * total energy  :   -26.1718182 Eh     change       -0.6227463E-04 Eh
 * total energy  :   -26.1718385 Eh     change       -0.2026663E-04 Eh
 * total energy  :   -26.1718395 Eh     change       -0.1015349E-05 Eh
 * total energy  :   -26.1718400 Eh     change       -0.5133685E-06 Eh
   *** GEOMETRY OPTIMIZATION CONVERGED AFTER 7 ITERATIONS ***

 final structure:
================
15
 xtb: 6.5.0 (97a52f5)
C            0.85737120358954       -0.73970232529176       -0.16904287207679
C           -0.23758110242642        0.09543563901914        0.03221641976608
C           -1.59978296558539       -0.45742226898256        0.20497342602104
O           -1.60325373664241       -1.66609953631984        0.79053016319761
C           -0.07324563197794        1.47795816684595        0.00395540338994
O           -2.61754425007091        0.10596472775867       -0.10944419936170
C            2.11024265531411       -0.19101968754033       -0.37161911246747
C            2.27506392353701        1.18493974370091       -0.37708369711101
H            0.71879136812560       -1.80984938003851       -0.16262604150073
C            1.18365351817547        2.01858694174870       -0.18897427953519
H           -0.93840852941709        2.10877732281175        0.14104872986653
H            1.31386252093473        3.09044455946182       -0.19979167760094
H           -2.51461457430301       -1.98553375705922        0.88175363160391
H            2.96103329755605       -0.83726770804055       -0.52900172887996
H            3.25614730319066        1.60892156192581       -0.53335616531134

          :  Hamiltonian                  GFN2-xTB          :
         :: total energy             -26.171840029333 Eh    ::
         :: gradient norm              0.000351389185 Eh/a0 ::
         :: HOMO-LUMO gap              3.915043496408 eV    ::
         :: SCC energy               -26.552769103180 Eh    ::
         :: -> dispersion             -0.011771150859 Eh    ::
         :: repulsion energy           0.380911506405 Eh    ::

    * Orbital Energies and Occupations

         #    Occupation            Energy/Eh            Energy/eV
      -------------------------------------------------------------
         1        2.0000           -0.7440595             -20.2469
       ...           ...                  ...                  ...
        11        2.0000           -0.5631937             -15.3253
        12        2.0000           -0.5318141             -14.4714
        13        2.0000           -0.5090039             -13.8507
        14        2.0000           -0.5040629             -13.7162
        15        2.0000           -0.4930191             -13.4157
        16        2.0000           -0.4918876             -13.3849
        17        2.0000           -0.4893607             -13.3162
        18        2.0000           -0.4752730             -12.9328
        19        2.0000           -0.4515915             -12.2884
        20        2.0000           -0.4353316             -11.8460
        21        2.0000           -0.4215130             -11.4700
        22        2.0000           -0.4197650             -11.4224
        23        2.0000           -0.4162174             -11.3259 (HOMO)
        24                         -0.2723422              -7.4108 (LUMO)
        25                         -0.2371849              -6.4541
        26                         -0.1977472              -5.3810
        27                         -0.0990893              -2.6964
        28                          0.0570286               1.5518
        29                          0.1175209               3.1979
        30                          0.1251373               3.4052
        31                          0.1592058               4.3322
        32                          0.1659280               4.5151
        33                          0.1815602               4.9405
        34                          0.1907874               5.1916
       ...                                ...                  ...
        42                          0.6816791              18.5494
      -------------------------------------------------------------
                  HL-Gap            0.1438752 Eh            3.9150 eV

     #   Z          covCN         q      C6AA      α(0)
     1   6 C        2.921    -0.020    28.510     8.756
     2   6 C        2.974    -0.015    28.375     8.738
     3   6 C        2.697     0.356    20.953     7.492
     4   8 O        1.660    -0.380    20.462     6.107
     5   6 C        2.924    -0.019    28.479     8.752
     6   8 O        0.856    -0.414    21.968     6.284
     7   6 C        2.919    -0.026    28.652     8.778
     8   6 C        2.920    -0.022    28.544     8.761
     9   1 H        0.926     0.053     2.282     2.362
    10   6 C        2.919    -0.025    28.627     8.774
    11   1 H        0.926     0.057     2.233     2.337
    12   1 H        0.926     0.043     2.408     2.427
    13   1 H        0.804     0.328     0.643     1.260
    14   1 H        0.926     0.042     2.427     2.436
    15   1 H        0.926     0.042     2.429     2.437

Wiberg/Mayer (AO) data.
largest (>0.10) Wiberg bond orders for each atom

     #   Z sym  total        # sym  WBO       # sym  WBO       # sym  WBO
 ---------------------------------------------------------------------------
     1   6 C    3.990 --     7 C    1.451     2 C    1.391     9 H    0.968
                            10 C    0.109
     2   6 C    3.988 --     1 C    1.391     5 C    1.388     3 C    1.002
                             8 C    0.104
     3   6 C    3.914 --     6 O    1.742     4 O    1.119     2 C    1.002
     4   8 O    2.194 --     3 C    1.119    13 H    0.868     6 O    0.171
     5   6 C    3.989 --    10 C    1.453     2 C    1.388    11 H    0.967
                             7 C    0.109
     6   8 O    2.034 --     3 C    1.742     4 O    0.171
     7   6 C    3.992 --     1 C    1.451     8 C    1.435    14 H    0.970
                             5 C    0.109
     8   6 C    3.992 --     7 C    1.435    10 C    1.433    15 H    0.971
                             2 C    0.104
     9   1 H    0.997 --     1 C    0.968
    10   6 C    3.992 --     5 C    1.453     8 C    1.433    12 H    0.970
                             1 C    0.109
    11   1 H    0.997 --     5 C    0.967
    12   1 H    0.998 --    10 C    0.970
    13   1 H    0.892 --     4 O    0.868
    14   1 H    0.998 --     7 C    0.970
    15   1 H    0.998 --     8 C    0.971
 ---------------------------------------------------------------------------

molecular dipole:
                 x           y           z       tot (Debye)
 q only:        0.856      -0.228       0.149
   full:        0.773      -0.343       0.185       2.199

           -------------------------------------------------
          | TOTAL ENERGY              -26.171840029333 Eh   |
          | GRADIENT NORM               0.000351389185 Eh/α |
          | HOMO-LUMO GAP               3.915043496408 eV   |
           -------------------------------------------------

 * finished run on 2023/11/18 at 08:15:38.450
