                               Psi4 1.6 release

  ==> Input File <==

--------------------------------------------------------------------------
molecule {
0 1
 C    0.708490   -0.607954   -0.709490
 C   -0.174390    0.019100    0.161976
 C   -1.443456   -0.648200    0.555290
 O   -2.218104   -0.926316   -0.503409
 C    0.168094    1.234041    0.745130
 O   -1.777865   -0.889204    1.685009
 C    1.913957   -0.003792   -1.018983
 C    2.241920    1.220382   -0.460203
 H    0.445540   -1.560580   -1.144166
 C    1.368725    1.838511    0.420115
 H   -0.513597    1.699014    1.441208
 H    1.628009    2.789431    0.861162
 H   -3.037949   -1.360410   -0.217625
 H    2.600157   -0.490948   -1.695712
 H    3.182200    1.691059   -0.706757
}
memory 20GB
set_num_threads(5)
psi4_io.set_default_path("/scratch/liuchw/Psi4-13_34_Index_0-farH_in17")
set freeze_core True
E, wfn = energy('wb97x-d/6-311+G*',return_wfn=True)
oeprop(wfn,"WIBERG_LOWDIN_INDICES")
clean()
--------------------------------------------------------------------------

    Molecular point group: c1

    Geometry (in Angstrom), charge = 0, multiplicity = 1:

       Center              X                  Y                   Z               Mass
    ------------   -----------------  -----------------  -----------------  -----------------
         C            0.726329386059    -0.692970918271    -0.822179648498    12.000000000000
         C           -0.156550613941    -0.065916918271     0.049286351502    12.000000000000
         C           -1.425616613941    -0.733216918271     0.442600351502    12.000000000000
         O           -2.200264613941    -1.011332918271    -0.616098648498    15.994914619570
         C            0.185933386059     1.149024081729     0.632440351502    12.000000000000
         O           -1.760025613941    -0.974220918271     1.572319351502    15.994914619570
         C            1.931796386059    -0.088808918271    -1.131672648498    12.000000000000
         C            2.259759386059     1.135365081729    -0.572892648498    12.000000000000
         H            0.463379386059    -1.645596918271    -1.256855648498     1.007825032230
         C            1.386564386059     1.753494081729     0.307425351502    12.000000000000
         H           -0.495757613941     1.613997081729     1.328518351502     1.007825032230
         H            1.645848386059     2.704414081729     0.748472351502     1.007825032230
         H           -3.020109613941    -1.445426918271    -0.330314648498     1.007825032230
         H            2.617996386059    -0.575964918271    -1.808401648498     1.007825032230
         H            3.200039386059     1.606042081729    -0.819446648498     1.007825032230

  Charge       = 0
  Multiplicity = 1
  Basis Set: 6-311+G*
    Blend: 6-311+G*
  Basis Set: (6-311+G* AUX)
    Blend: HEAVY-AUG-CC-PVTZ-JKFIT

    Orbital Energies [Eh]
    ---------------------

    Doubly Occupied:

       1A    -19.307245     2A    -19.246025     3A    -10.431170
       4A    -10.314141     5A    -10.304739     6A    -10.303999
       7A    -10.301412     8A    -10.300154     9A    -10.299895
      10A     -1.229453    11A     -1.134521    12A     -0.982644
      13A     -0.883807    14A     -0.866520    15A     -0.774760
      16A     -0.721123    17A     -0.699551    18A     -0.641623
      19A     -0.591140    20A     -0.582732    21A     -0.572908
      22A     -0.545527    23A     -0.532722    24A     -0.524073
      25A     -0.500163    26A     -0.475840    27A     -0.454556
      28A     -0.443563    29A     -0.419759    30A     -0.380701
      31A     -0.346818    32A     -0.342687

  @DF-RKS Final Energy:  -420.77683465063882

   => Energetics <=

    Nuclear Repulsion Energy =            406.1763024568755895
    One-Electron Energy =               -1375.9657703490720451
    Two-Electron Energy =                 588.7635905553366911
    DFT Exchange-Correlation Energy =     -39.7446105584114164
    Empirical Dispersion Energy =          -0.0063467553677343
    VV10 Nonlocal Energy =                  0.0000000000000000
    Total Energy =                       -420.7768346506388752
 Dipole X            :         -3.8499150            4.1165203            0.2666053
 Dipole Y            :         -1.9431619            2.1067635            0.1636016
 Dipole Z            :          1.3258703           -1.9997413           -0.6738709
 Magnitude           :                                                    0.7429306
*** Psi4 exiting successfully. Buy a developer a beer!
