                               Psi4 1.6 release

  ==> Input File <==

--------------------------------------------------------------------------
molecule {
0 1
 C    0.897503   -0.762282   -0.492514
 C   -0.207024   -0.014576   -0.100211
 C   -1.521709   -0.690772    0.064078
 O   -1.999703   -0.555071    1.309489
 C   -0.065078    1.336677    0.192939
 O   -2.091398   -1.325388   -0.783854
 C    2.133349   -0.152582   -0.611269
 C    2.270256    1.199026   -0.340237
 H    0.777132   -1.813066   -0.709191
 C    1.171465    1.942229    0.058805
 H   -0.923400    1.908426    0.512201
 H    1.279710    2.995062    0.273525
 H   -2.856438   -1.003683    1.392557
 H    2.991477   -0.733405   -0.915080
 H    3.235592    1.673538   -0.437697
}
memory 20GB
set_num_threads(5)
psi4_io.set_default_path("/scratch/liuchw/Psi4-13_34_Index_0-farH_in17")
set freeze_core True
E, wfn = energy('wb97x-d/6-311+G*',return_wfn=True)
oeprop(wfn,"WIBERG_LOWDIN_INDICES")
clean()
--------------------------------------------------------------------------

    Molecular point group: c1

    Geometry (in Angstrom), charge = 0, multiplicity = 1:

       Center              X                  Y                   Z               Mass
    ------------   -----------------  -----------------  -----------------  -----------------
         C            0.936444946033    -0.821816644016    -0.441576930747    12.000000000000
         C           -0.168082053967    -0.074110644016    -0.049273930747    12.000000000000
         C           -1.482767053967    -0.750306644016     0.115015069253    12.000000000000
         O           -1.960761053967    -0.614605644016     1.360426069253    15.994914619570
         C           -0.026136053967     1.277142355984     0.243876069253    12.000000000000
         O           -2.052456053967    -1.384922644016    -0.732916930747    15.994914619570
         C            2.172290946033    -0.212116644016    -0.560331930747    12.000000000000
         C            2.309197946033     1.139491355984    -0.289299930747    12.000000000000
         H            0.816073946033    -1.872600644016    -0.658253930747     1.007825032230
         C            1.210406946033     1.882694355984     0.109742069253    12.000000000000
         H           -0.884458053967     1.848891355984     0.563138069253     1.007825032230
         H            1.318651946033     2.935527355984     0.324462069253     1.007825032230
         H           -2.817496053967    -1.063217644016     1.443494069253     1.007825032230
         H            3.030418946033    -0.792939644016    -0.864142930747     1.007825032230
         H            3.274533946033     1.614003355984    -0.386759930747     1.007825032230

  Charge       = 0
  Multiplicity = 1
  Basis Set: 6-311+G*
    Blend: 6-311+G*
  Basis Set: (6-311+G* AUX)
    Blend: HEAVY-AUG-CC-PVTZ-JKFIT

    Orbital Energies [Eh]
    ---------------------

    Doubly Occupied:

       1A    -19.307282     2A    -19.245924     3A    -10.431161
       4A    -10.314264     5A    -10.304638     6A    -10.304315
       7A    -10.301485     8A    -10.300257     9A    -10.300025
      10A     -1.229564    11A     -1.134402    12A     -0.982774
      13A     -0.883967    14A     -0.866638    15A     -0.774673
      16A     -0.721260    17A     -0.699323    18A     -0.641758
      19A     -0.591242    20A     -0.582775    21A     -0.573116
      22A     -0.545634    23A     -0.532638    24A     -0.524088
      25A     -0.500202    26A     -0.475856    27A     -0.455015
      28A     -0.443740    29A     -0.419695    30A     -0.379992
      31A     -0.346887    32A     -0.343058

  @DF-RKS Final Energy:  -420.77659884360736

   => Energetics <=

    Nuclear Repulsion Energy =            406.2556309102901082
    One-Electron Energy =               -1376.1206158221202713
    Two-Electron Energy =                 588.8392918895193588
    DFT Exchange-Correlation Energy =     -39.7445526759493504
    Empirical Dispersion Energy =          -0.0063531453473066
    VV10 Nonlocal Energy =                  0.0000000000000000
    Total Energy =                       -420.7765988436074167
 Dipole X            :         -4.0168583            4.4221888            0.4053305
 Dipole Y            :         -2.0864370            2.4931209            0.4066840
 Dipole Z            :          0.1326136            0.3985686            0.5311822
 Magnitude           :                                                    0.7822015
*** Psi4 exiting successfully. Buy a developer a beer!
