                               Psi4 1.6 release

  ==> Input File <==

--------------------------------------------------------------------------
molecule {
0 1
 C    0.859169   -0.728361   -0.595361
 C   -0.115395   -0.096008    0.168105
 C   -1.385864   -0.811475    0.465452
 O   -2.449802   -0.161348   -0.027330
 C    0.075466    1.212238    0.596674
 O   -1.476917   -1.864734    1.038364
 C    2.028421   -0.059037   -0.908790
 C    2.227878    1.237373   -0.463335
 H    0.696964   -1.741810   -0.930378
 C    1.253154    1.870354    0.290334
 H   -0.691573    1.703449    1.176306
 H    1.407534    2.882362    0.634256
 H   -3.265920   -0.645183    0.177842
 H    2.785112   -0.549914   -1.502520
 H    3.143511    1.756227   -0.706075
}
memory 20GB
set_num_threads(5)
psi4_io.set_default_path("/scratch/liuchw/Psi4-13_34_Index_0-farH_in17")
set freeze_core True
E, wfn = energy('wb97x-d/6-311+G*',return_wfn=True)
oeprop(wfn,"WIBERG_LOWDIN_INDICES")
clean()
--------------------------------------------------------------------------

    Molecular point group: c1

    Geometry (in Angstrom), charge = 0, multiplicity = 1:

       Center              X                  Y                   Z               Mass
    ------------   -----------------  -----------------  -----------------  -----------------
         C            0.854138280710    -0.749057839668    -0.674425510821    12.000000000000
         C           -0.120425719290    -0.116704839668     0.089040489179    12.000000000000
         C           -1.390894719290    -0.832171839668     0.386387489179    12.000000000000
         O           -2.454832719290    -0.182044839668    -0.106394510821    15.994914619570
         C            0.070435280710     1.191541160332     0.517609489179    12.000000000000
         O           -1.481947719290    -1.885430839668     0.959299489179    15.994914619570
         C            2.023390280710    -0.079733839668    -0.987854510821    12.000000000000
         C            2.222847280710     1.216676160332    -0.542399510821    12.000000000000
         H            0.691933280710    -1.762506839668    -1.009442510821     1.007825032230
         C            1.248123280710     1.849657160332     0.211269489179    12.000000000000
         H           -0.696603719290     1.682752160332     1.097241489179     1.007825032230
         H            1.402503280710     2.861665160332     0.555191489179     1.007825032230
         H           -3.270950719290    -0.665879839668     0.098777489179     1.007825032230
         H            2.780081280710    -0.570610839668    -1.581584510821     1.007825032230
         H            3.138480280710     1.735530160332    -0.785139510821     1.007825032230

  Charge       = 0
  Multiplicity = 1
  Basis Set: 6-311+G*
    Blend: 6-311+G*
  Basis Set: (6-311+G* AUX)
    Blend: HEAVY-AUG-CC-PVTZ-JKFIT

    Orbital Energies [Eh]
    ---------------------

    Doubly Occupied:

       1A    -19.307470     2A    -19.246242     3A    -10.431375
       4A    -10.314381     5A    -10.304603     6A    -10.304301
       7A    -10.301289     8A    -10.300211     9A    -10.299973
      10A     -1.229785    11A     -1.134667    12A     -0.982744
      13A     -0.883937    14A     -0.866602    15A     -0.774726
      16A     -0.721214    17A     -0.699516    18A     -0.641787
      19A     -0.591128    20A     -0.583097    21A     -0.573543
      22A     -0.545508    23A     -0.532396    24A     -0.523990
      25A     -0.500382    26A     -0.475926    27A     -0.454908
      28A     -0.443786    29A     -0.419910    30A     -0.380208
      31A     -0.346818    32A     -0.342877

  @DF-RKS Final Energy:  -420.77622919745727

   => Energetics <=

    Nuclear Repulsion Energy =            406.2013627161664999
    One-Electron Energy =               -1376.0081541697741159
    Two-Electron Energy =                 588.7812958942566866
    DFT Exchange-Correlation Energy =     -39.7443773716791071
    Empirical Dispersion Energy =          -0.0063562664272213
    VV10 Nonlocal Energy =                  0.0000000000000000
    Total Energy =                       -420.7762291974572690
 Dipole X            :         -3.6821687            3.7735638            0.0913951
 Dipole Y            :         -2.3924127            3.0658563            0.6734436
 Dipole Z            :          1.1396479           -1.5192485           -0.3796006
 Magnitude           :                                                    0.7784446
*** Psi4 exiting successfully. Buy a developer a beer!
