   * xtb version 6.5.0 (97a52f5) compiled by 'conda@d2599ee0d4f4' on 2022-05-15
          program call               : /home/liuchw/anaconda3/envs/xtbenv/bin/xtb --gfn 2 --chrg 0 --uhf 0 13_34_Index_0-opt-2-3-271_preQMOPTprefit_xyzformat.xyz --opt --input xtb-opt-2-3-271_constr.txt

   ID    Z sym.   atoms
    1    6 C      1-3, 5, 7, 8, 10
    2    8 O      4, 6
    3    1 H      9, 11-15
constraining angle 1 2 3 4 to  270.9985413°, actual value:  -89.0014587°
constraining angle 2 3 4 13 to  180.0011804°, actual value: -179.9988196°

          :  Hamiltonian                  GFN2-xTB          :
 * total energy  :   -26.1611201 Eh     change       -0.3074270E-09 Eh
 * total energy  :   -26.1663015 Eh     change       -0.5181323E-02 Eh
 * total energy  :   -26.1666305 Eh     change       -0.3290673E-03 Eh
 * total energy  :   -26.1666992 Eh     change       -0.6869572E-04 Eh
 * total energy  :   -26.1667240 Eh     change       -0.2480861E-04 Eh
 * total energy  :   -26.1667251 Eh     change       -0.1084662E-05 Eh
   *** GEOMETRY OPTIMIZATION CONVERGED AFTER 6 ITERATIONS ***

 final structure:
================
15
 xtb: 6.5.0 (97a52f5)
C            0.78866361984524       -0.67572472880191       -0.64634873499341
C           -0.13777732053349       -0.04619752262104        0.17468441455311
C           -1.40752874742230       -0.74271644971835        0.53735440584608
O           -2.37684695289002       -0.50176961629055       -0.35457127263805
C            0.12460247311580        1.22187290005534        0.67657932576730
O           -1.57026162903808       -1.43731340074629        1.50369203298114
C            1.97243350689955       -0.03374357717821       -0.96561848712872
C            2.23365799088511        1.23182490543733       -0.46811701310484
H            0.58241130780629       -1.66351095535076       -1.03075404532304
C            1.31017340450822        1.85784491293567        0.35209047347389
H           -0.59664814405734        1.70543729468601        1.31843401196393
H            1.51270345032827        2.84423640314646        0.74197336542807
H           -3.19436754026860       -0.96209916231561       -0.10312264291477
H            2.69210931548415       -0.52414214449439       -1.60403687316031
H            3.15841025533721        1.73013413125632       -0.71869495075036

          :  Hamiltonian                  GFN2-xTB          :
         :: total energy             -26.166725111048 Eh    ::
         :: gradient norm              0.000361869557 Eh/a0 ::
         :: HOMO-LUMO gap              4.736495626866 eV    ::
         :: SCC energy               -26.548673781727 Eh    ::
         :: -> dispersion             -0.011807691000 Eh    ::
         :: repulsion energy           0.381927462955 Eh    ::

    * Orbital Energies and Occupations

         #    Occupation            Energy/Eh            Energy/eV
      -------------------------------------------------------------
         1        2.0000           -0.7503460             -20.4180
       ...           ...                  ...                  ...
        11        2.0000           -0.5665129             -15.4156
        12        2.0000           -0.5352893             -14.5660
        13        2.0000           -0.5081665             -13.8279
        14        2.0000           -0.5053016             -13.7500
        15        2.0000           -0.4950166             -13.4701
        16        2.0000           -0.4906725             -13.3519
        17        2.0000           -0.4900842             -13.3359
        18        2.0000           -0.4812854             -13.0964
        19        2.0000           -0.4550420             -12.3823
        20        2.0000           -0.4363707             -11.8743
        21        2.0000           -0.4203691             -11.4388
        22        2.0000           -0.4183268             -11.3833
        23        2.0000           -0.4151690             -11.2973 (HOMO)
        24                         -0.2411060              -6.5608 (LUMO)
        25                         -0.2387747              -6.4974
        26                         -0.2365597              -6.4371
        27                         -0.1083989              -2.9497
        28                          0.0527340               1.4350
        29                          0.1143348               3.1112
        30                          0.1274316               3.4676
        31                          0.1597184               4.3462
        32                          0.1615268               4.3954
        33                          0.1805434               4.9128
        34                          0.1961056               5.3363
       ...                                ...                  ...
        42                          0.6611507              17.9908
      -------------------------------------------------------------
                  HL-Gap            0.1740630 Eh            4.7365 eV

     #   Z          covCN         q      C6AA      α(0)
     1   6 C        2.922    -0.021    28.537     8.760
     2   6 C        2.974    -0.009    28.233     8.716
     3   6 C        2.695     0.363    20.834     7.470
     4   8 O        1.660    -0.374    20.348     6.089
     5   6 C        2.922    -0.021    28.537     8.760
     6   8 O        0.856    -0.401    21.705     6.246
     7   6 C        2.920    -0.025    28.616     8.772
     8   6 C        2.920    -0.025    28.640     8.776
     9   1 H        0.926     0.041     2.432     2.439
    10   6 C        2.920    -0.024    28.615     8.772
    11   1 H        0.926     0.041     2.430     2.438
    12   1 H        0.926     0.042     2.418     2.432
    13   1 H        0.804     0.330     0.639     1.255
    14   1 H        0.926     0.042     2.419     2.432
    15   1 H        0.926     0.041     2.441     2.443

Wiberg/Mayer (AO) data.
largest (>0.10) Wiberg bond orders for each atom

     #   Z sym  total        # sym  WBO       # sym  WBO       # sym  WBO
 ---------------------------------------------------------------------------
     1   6 C    3.991 --     7 C    1.442     2 C    1.408     9 H    0.970
                            10 C    0.113
     2   6 C    3.988 --     1 C    1.408     5 C    1.408     3 C    0.958
                             8 C    0.111
     3   6 C    3.909 --     6 O    1.774     4 O    1.133     2 C    0.958
     4   8 O    2.206 --     3 C    1.133    13 H    0.865     6 O    0.179
     5   6 C    3.991 --    10 C    1.442     2 C    1.408    11 H    0.970
                             7 C    0.113
     6   8 O    2.049 --     3 C    1.774     4 O    0.179
     7   6 C    3.992 --     1 C    1.442     8 C    1.440    14 H    0.970
                             5 C    0.113
     8   6 C    3.992 --     7 C    1.440    10 C    1.440    15 H    0.971
                             2 C    0.111
     9   1 H    0.998 --     1 C    0.970
    10   6 C    3.992 --     5 C    1.442     8 C    1.440    12 H    0.970
                             1 C    0.113
    11   1 H    0.998 --     5 C    0.970
    12   1 H    0.997 --    10 C    0.970
    13   1 H    0.890 --     4 O    0.865
    14   1 H    0.997 --     7 C    0.970
    15   1 H    0.998 --     8 C    0.971
 ---------------------------------------------------------------------------

molecular dipole:
                 x           y           z       tot (Debye)
 q only:        0.197       0.492      -0.639
   full:        0.033       0.447      -0.660       2.028

           -------------------------------------------------
          | TOTAL ENERGY              -26.166725111048 Eh   |
          | GRADIENT NORM               0.000361869557 Eh/α |
          | HOMO-LUMO GAP               4.736495626866 eV   |
           -------------------------------------------------

 * finished run on 2023/11/18 at 08:13:38.367
