                               Psi4 1.6 release

  ==> Input File <==

--------------------------------------------------------------------------
molecule {
0 1
 C    0.862155   -0.747214   -0.274008
 C   -0.231125    0.068637   -0.007715
 C   -1.592914   -0.516765    0.115452
 O   -1.672618   -1.403639    1.117894
 C   -0.071553    1.448412    0.053662
 O   -2.538009   -0.221648   -0.566804
 C    2.114036   -0.184068   -0.446537
 C    2.277457    1.188371   -0.357266
 H    0.729019   -1.816633   -0.339310
 C    1.185299    2.002956   -0.106321
 H   -0.931869    2.074830    0.235110
 H    1.311721    3.073528   -0.043816
 H   -2.570005   -1.769291    1.175787
 H    2.963465   -0.817871   -0.653707
 H    3.256679    1.624531   -0.488884
}
memory 20GB
set_num_threads(5)
psi4_io.set_default_path("/scratch/liuchw/Psi4-13_34_Index_0-farH_in17")
set freeze_core True
E, wfn = energy('wb97x-d/6-311+G*',return_wfn=True)
oeprop(wfn,"WIBERG_LOWDIN_INDICES")
clean()
--------------------------------------------------------------------------

    Molecular point group: c1

    Geometry (in Angstrom), charge = 0, multiplicity = 1:

       Center              X                  Y                   Z               Mass
    ------------   -----------------  -----------------  -----------------  -----------------
         C            0.927972124891    -0.874349880771    -0.244722755100    12.000000000000
         C           -0.165307875109    -0.058498880771     0.021570244900    12.000000000000
         C           -1.527096875109    -0.643900880771     0.144737244900    12.000000000000
         O           -1.606800875109    -1.530774880771     1.147179244900    15.994914619570
         C           -0.005735875109     1.321276119229     0.082947244900    12.000000000000
         O           -2.472191875109    -0.348783880771    -0.537518755100    15.994914619570
         C            2.179853124891    -0.311203880771    -0.417251755100    12.000000000000
         C            2.343274124891     1.061235119229    -0.327980755100    12.000000000000
         H            0.794836124891    -1.943768880771    -0.310024755100     1.007825032230
         C            1.251116124891     1.875820119229    -0.077035755100    12.000000000000
         H           -0.866051875109     1.947694119229     0.264395244900     1.007825032230
         H            1.377538124891     2.946392119229    -0.014530755100     1.007825032230
         H           -2.504187875109    -1.896426880771     1.205072244900     1.007825032230
         H            3.029282124891    -0.945006880771    -0.624421755100     1.007825032230
         H            3.322496124891     1.497395119229    -0.459598755100     1.007825032230

  Charge       = 0
  Multiplicity = 1
  Basis Set: 6-311+G*
    Blend: 6-311+G*
  Basis Set: (6-311+G* AUX)
    Blend: HEAVY-AUG-CC-PVTZ-JKFIT

    Orbital Energies [Eh]
    ---------------------

    Doubly Occupied:

       1A    -19.307438     2A    -19.246336     3A    -10.431383
       4A    -10.314259     5A    -10.304690     6A    -10.303997
       7A    -10.301214     8A    -10.300105     9A    -10.299844
      10A     -1.229675    11A     -1.134786    12A     -0.982613
      13A     -0.883772    14A     -0.866485    15A     -0.774812
      16A     -0.721080    17A     -0.699749    18A     -0.641656
      19A     -0.591025    20A     -0.583051    21A     -0.573340
      22A     -0.545402    23A     -0.532469    24A     -0.523977
      25A     -0.500333    26A     -0.475906    27A     -0.454459
      28A     -0.443608    29A     -0.419971    30A     -0.380908
      31A     -0.346740    32A     -0.342515

  @DF-RKS Final Energy:  -420.77646331850184

   => Energetics <=

    Nuclear Repulsion Energy =            406.1219312622967550
    One-Electron Energy =               -1375.8531424663121925
    Two-Electron Energy =                 588.7055322511196209
    DFT Exchange-Correlation Energy =     -39.7444344097277522
    Empirical Dispersion Energy =          -0.0063499558782386
    VV10 Nonlocal Energy =                  0.0000000000000000
    Total Energy =                       -420.7764633185017829
 Dipole X            :         -4.1968038            4.8120364            0.6152326
 Dipole Y            :         -1.6474001            1.4968060           -0.1505941
 Dipole Z            :          0.3212726            0.0600133            0.3812859
 Magnitude           :                                                    0.7393028
*** Psi4 exiting successfully. Buy a developer a beer!
