                               Psi4 1.6 release

  ==> Input File <==

--------------------------------------------------------------------------
molecule {
0 1
O 0.000978601539 0.066556122324 0.0
H 0.755429558873 -0.540910345372 0.0
H -0.770887182219 -0.51862374951 0.0
no_reorient
}
memory 209GB
set_num_threads(51)
psi4_io.set_default_path("/scratch/liuchw/Psi4-water_3D")
set freeze_core True
set PROPERTIES_ORIGIN ["COM"]
set cubeprop_tasks ['esp']
set basis 6-311G**
E, wfn = properties('mp2',properties=['dipole'],return_wfn=True)
cubeprop(wfn)
fchk(wfn, "water_3D-dma.fchk")
clean()
--------------------------------------------------------------------------

    Molecular point group: cs
  Charge       = 0
  Multiplicity = 1
  Basis Set: 6-311G**
    Blend: 6-311G**
  Basis Set: (6-311G** AUX)
    Blend: CC-PVTZ-JKFIT

    Orbital Energies [Eh]
    ---------------------

    Doubly Occupied:

       1Ap   -20.547263     2Ap    -1.335995     3Ap    -0.699381
       4Ap    -0.570797     1App   -0.499138

  @DF-RHF Final Energy:   -76.04541999935603

   => Energetics <=

    Nuclear Repulsion Energy =              9.0878563559364540
    One-Electron Energy =                -122.9614051636684735
    Two-Electron Energy =                  37.8281288083760074
    Total Energy =                        -76.0454199993560138
  Basis Set: (6-311G** AUX)
    Blend: CC-PVTZ-RI
    Molecular point group: c1

    Geometry (in Angstrom), charge = 0, multiplicity = 1:

       Center              X                  Y                   Z               Mass
    ------------   -----------------  -----------------  -----------------  -----------------
         O            0.000974489046     0.066737431983     0.000000000000    15.994914619570
         H            0.755425446380    -0.540729035713     0.000000000000     1.007825032230
         H           -0.770891294712    -0.518442439851     0.000000000000     1.007825032230

  Basis Set: 6-311G**
    Blend: 6-311G**
  Basis Set: (6-311G** AUX)
    Blend: CC-PVTZ-JKFIT
	 Reference Energy          =     -76.0454199993560280 [Eh]
	 Singles Energy            =      -0.0000000000000000 [Eh]
	 Same-Spin Energy          =      -0.0546718517963561 [Eh]
	 Opposite-Spin Energy      =      -0.1635300717102218 [Eh]
	 Correlation Energy        =      -0.2182019235065779 [Eh]
	 Total Energy              =     -76.2636219228626118 [Eh]

	 ================> DF-SCS-MP2 Energies <==================
	-----------------------------------------------------------
	 SCS Same-Spin Scale       =       0.3333333333333333 [-]
	 SCS Opposite-Spin Scale   =       1.2000000000000000 [-]
	 SCS Same-Spin Energy      =      -0.0182239505987854 [Eh]
	 SCS Opposite-Spin Energy  =      -0.1962360860522662 [Eh]
	 SCS Correlation Energy    =      -0.2144600366510515 [Eh]
	 SCS Total Energy          =     -76.2598800360070754 [Eh]
	-----------------------------------------------------------

 Dipole X            :          0.0025065           -0.0144941           -0.0119876
 Dipole Y            :          0.1716476           -0.9926203           -0.8209727
 Dipole Z            :          0.0000000            0.0000000            0.0000000
 Magnitude           :                                                    0.8210602
  Basis Set: 6-311G**
    Blend: 6-311G**
*** Psi4 exiting successfully. Buy a developer a beer!
