                               Psi4 1.6 release

  ==> Input File <==

--------------------------------------------------------------------------
molecule {
0 1
 N   -1.204290   -0.878106   -0.150234
 C   -0.622944    0.315703    0.157545
 C    0.603385    0.184071    1.055747
 N    1.788561    0.037182    0.216128
 O   -0.999467    1.355848   -0.321051
 H    0.459751   -0.644142    1.769072
 H    0.711752    1.117405    1.616322
 H   -2.063595   -0.842802   -0.677304
 H   -1.072638   -1.684181    0.436383
 H    2.551152   -0.354308    0.760154
 H    1.603734   -0.624970   -0.532381
}
memory 20GB
set_num_threads(5)
psi4_io.set_default_path("/scratch/liuchw/Psi4-25_27_Index_0-farH_in17")
set freeze_core True
E, wfn = energy('wb97x-d/6-311+G*',return_wfn=True)
oeprop(wfn,"WIBERG_LOWDIN_INDICES")
clean()
--------------------------------------------------------------------------

    Molecular point group: c1

    Geometry (in Angstrom), charge = 0, multiplicity = 1:

       Center              X                  Y                   Z               Mass
    ------------   -----------------  -----------------  -----------------  -----------------
         N           -1.125527410500    -1.051665130031    -0.335865897937    14.003074004430
         C           -0.544181410500     0.142143869969    -0.028086897937    12.000000000000
         C            0.682147589500     0.010511869969     0.870115102063    12.000000000000
         N            1.867323589500    -0.136377130031     0.030496102063    14.003074004430
         O           -0.920704410500     1.182288869969    -0.506682897937    15.994914619570
         H            0.538513589500    -0.817701130031     1.583440102063     1.007825032230
         H            0.790514589500     0.943845869969     1.430690102063     1.007825032230
         H           -1.984832410500    -1.016361130031    -0.862935897937     1.007825032230
         H           -0.993875410500    -1.857740130031     0.250751102063     1.007825032230
         H            2.629914589500    -0.527867130031     0.574522102063     1.007825032230
         H            1.682496589500    -0.798529130031    -0.718012897937     1.007825032230

  Charge       = 0
  Multiplicity = 1
  Basis Set: 6-311+G*
    Blend: 6-311+G*
  Basis Set: (6-311+G* AUX)
    Blend: HEAVY-AUG-CC-PVTZ-JKFIT

    Orbital Energies [Eh]
    ---------------------

    Doubly Occupied:

       1A    -19.218844     2A    -14.463177     3A    -14.424560
       4A    -10.395164     5A    -10.323204     6A     -1.155494
       7A     -1.024154     8A     -0.996165     9A     -0.806492
      10A     -0.693829    11A     -0.643762    12A     -0.600726
      13A     -0.557858    14A     -0.551150    15A     -0.503523
      16A     -0.492810    17A     -0.476430    18A     -0.372433
      19A     -0.346691    20A     -0.333943

  @DF-RKS Final Energy:  -264.53943164822670

   => Energetics <=

    Nuclear Repulsion Energy =            180.4826739582856305
    One-Electron Energy =                -716.6070039551329955
    Two-Electron Energy =                 296.1478131342029769
    DFT Exchange-Correlation Energy =     -24.5590949279904720
    Empirical Dispersion Energy =          -0.0038198575918547
    VV10 Nonlocal Energy =                  0.0000000000000000
    Total Energy =                       -264.5394316482266959
 Dipole X            :         -2.5089606            2.4896510           -0.0193096
 Dipole Y            :          1.8982424           -3.8104498           -1.9122074
 Dipole Z            :         -1.3383011            2.1156846            0.7773836
 Magnitude           :                                                    2.0642759
*** Psi4 exiting successfully. Buy a developer a beer!
