   * xtb version 6.5.0 (97a52f5) compiled by 'conda@d2599ee0d4f4' on 2022-05-15
          program call               : /home/liuchw/anaconda3/envs/xtbenv/bin/xtb --gfn 2 --chrg 0 --uhf 0 25_27_Index_0-opt-2-3-330_preQMOPTprefit_xyzformat.xyz --opt --input xtb-opt-2-3-330_constr.txt

   ID    Z sym.   atoms
    1    7 N      1, 4
    2    6 C      2, 3
    3    8 O      5
    4    1 H      6-11
constraining angle 1 2 3 4 to  329.8599550°, actual value:  -30.1400450°
constraining angle 8 1 2 3 to  175.0048589°, actual value:  175.0048589°
constraining angle 8 1 2 5 to  350.0408958°, actual value:   -9.9591042°
constraining angle 9 1 2 5 to  197.9724898°, actual value: -162.0275102°
constraining angle 9 1 2 3 to   22.9364529°, actual value:   22.9364529°
constraining angle 6 3 4 11 to   78.2788139°, actual value:   78.2788139°
constraining angle 7 3 4 11 to  198.7481711°, actual value: -161.2518289°
constraining angle 6 3 4 10 to  321.7283218°, actual value:  -38.2716782°
constraining angle 7 3 4 10 to   82.1976791°, actual value:   82.1976791°

          :  Hamiltonian                  GFN2-xTB          :
 * total energy  :   -17.2299381 Eh     change       -0.4021672E-11 Eh
 * total energy  :   -17.2333275 Eh     change       -0.3389388E-02 Eh
 * total energy  :   -17.2330469 Eh     change        0.2805508E-03 Eh
 * total energy  :   -17.2336572 Eh     change       -0.6102507E-03 Eh
 * total energy  :   -17.2336820 Eh     change       -0.2484646E-04 Eh
 * total energy  :   -17.2337508 Eh     change       -0.6879857E-04 Eh
 * total energy  :   -17.2337611 Eh     change       -0.1032010E-04 Eh
 * total energy  :   -17.2337695 Eh     change       -0.8325302E-05 Eh
 * total energy  :   -17.2337704 Eh     change       -0.9475571E-06 Eh
   *** GEOMETRY OPTIMIZATION CONVERGED AFTER 9 ITERATIONS ***

 final structure:
================
11
 xtb: 6.5.0 (97a52f5)
N           -1.38059332756586        0.04968118436171        0.24631965989747
C           -0.43614351521223       -0.84119705726543       -0.13935490470962
C            0.88291054092002       -0.70900739180903        0.61331005285247
N            1.14959214944088        0.66125424917564        1.04127339678862
O           -0.64584248347401       -1.72314323718628       -0.94046585519485
H            1.67970435634325       -1.16941220835565        0.01624110559835
H            0.73919941765122       -1.31199283319165        1.51940312046323
H           -2.24503976202079        0.05676022662051       -0.27270187668958
H           -1.09990810987697        0.90747083703365        0.69070776307013
H            2.12788409854328        0.76101937320962        1.28898832904024
H            0.98363963525120        1.30026885740693        0.26665822888353

          :  Hamiltonian                  GFN2-xTB          :
         :: total energy             -17.233770406416 Eh    ::
         :: gradient norm              0.000803671518 Eh/a0 ::
         :: HOMO-LUMO gap              4.801269063847 eV    ::
         :: SCC energy               -17.424140989712 Eh    ::
         :: -> dispersion             -0.005194602246 Eh    ::
         :: repulsion energy           0.190356541950 Eh    ::

    * Orbital Energies and Occupations

         #    Occupation            Energy/Eh            Energy/eV
      -------------------------------------------------------------
         1        2.0000           -0.7003418             -19.0573
       ...           ...                  ...                  ...
         3        2.0000           -0.6439615             -17.5231
         4        2.0000           -0.6090958             -16.5743
         5        2.0000           -0.5829402             -15.8626
         6        2.0000           -0.5696559             -15.5011
         7        2.0000           -0.5489123             -14.9367
         8        2.0000           -0.5381813             -14.6447
         9        2.0000           -0.5206739             -14.1683
        10        2.0000           -0.5066038             -13.7854
        11        2.0000           -0.4848941             -13.1946
        12        2.0000           -0.4786088             -13.0236
        13        2.0000           -0.4223692             -11.4933
        14        2.0000           -0.3961747             -10.7805
        15        2.0000           -0.3874079             -10.5419 (HOMO)
        16                         -0.2109645              -5.7406 (LUMO)
        17                          0.0038388               0.1045
        18                          0.0474117               1.2901
        19                          0.1063220               2.8932
        20                          0.1256222               3.4184
        21                          0.1500306               4.0825
        22                          0.1994131               5.4263
        23                          0.2210146               6.0141
        24                          0.2351803               6.3996
        25                          0.3569172               9.7122
        26                          0.6433378              17.5061
      -------------------------------------------------------------
                  HL-Gap            0.1764434 Eh            4.8013 eV

     #   Z          covCN         q      C6AA      α(0)
     1   7 N        2.638    -0.272    27.029     7.721
     2   6 C        2.742     0.279    22.273     7.727
     3   6 C        3.734    -0.014    20.916     6.527
     4   7 N        2.628    -0.344    28.848     7.977
     5   8 O        0.858    -0.427    22.226     6.321
     6   1 H        0.924     0.040     2.443     2.444
     7   1 H        0.924     0.066     2.134     2.285
     8   1 H        0.860     0.191     1.155     1.683
     9   1 H        0.860     0.197     1.120     1.658
    10   1 H        0.860     0.146     1.426     1.871
    11   1 H        0.860     0.137     1.495     1.915

Wiberg/Mayer (AO) data.
largest (>0.10) Wiberg bond orders for each atom

     #   Z sym  total        # sym  WBO       # sym  WBO       # sym  WBO
 ---------------------------------------------------------------------------
     1   7 N    3.359 --     2 C    1.249     8 H    0.943     9 H    0.936
                             5 O    0.195
     2   6 C    3.949 --     5 O    1.712     1 N    1.249     3 C    0.960
     3   6 C    3.984 --     4 N    1.021     6 H    0.966     2 C    0.960
                             7 H    0.948
     4   7 N    2.998 --     3 C    1.021    11 H    0.965    10 H    0.964
     5   8 O    2.014 --     2 C    1.712     1 N    0.195
     6   1 H    0.998 --     3 C    0.966
     7   1 H    0.996 --     3 C    0.948
     8   1 H    0.964 --     1 N    0.943
     9   1 H    0.961 --     1 N    0.936
    10   1 H    0.979 --     4 N    0.964
    11   1 H    0.981 --     4 N    0.965
 ---------------------------------------------------------------------------

molecular dipole:
                 x           y           z       tot (Debye)
 q only:        0.073       1.164       0.641
   full:        0.338       1.402       0.435       3.829

           -------------------------------------------------
          | TOTAL ENERGY              -17.233770406416 Eh   |
          | GRADIENT NORM               0.000803671518 Eh/α |
          | HOMO-LUMO GAP               4.801269063847 eV   |
           -------------------------------------------------

 * finished run on 2023/11/18 at 08:08:38.769
