   * xtb version 6.5.0 (97a52f5) compiled by 'conda@d2599ee0d4f4' on 2022-05-15
          program call               : /home/liuchw/anaconda3/envs/xtbenv/bin/xtb --gfn 2 --chrg 0 --uhf 0 25_27_Index_0-opt-2-3-210_preQMOPTprefit_xyzformat.xyz --opt --input xtb-opt-2-3-210_constr.txt

   ID    Z sym.   atoms
    1    7 N      1, 4
    2    6 C      2, 3
    3    8 O      5
    4    1 H      6-11
constraining angle 1 2 3 4 to  210.0184538°, actual value: -149.9815462°
constraining angle 8 1 2 3 to  175.0335466°, actual value:  175.0335466°
constraining angle 8 1 2 5 to  350.0044497°, actual value:   -9.9955503°
constraining angle 9 1 2 5 to  197.9618291°, actual value: -162.0381709°
constraining angle 9 1 2 3 to   22.9909260°, actual value:   22.9909260°
constraining angle 6 3 4 11 to   78.3115311°, actual value:   78.3115311°
constraining angle 7 3 4 11 to  198.7909753°, actual value: -161.2090247°
constraining angle 6 3 4 10 to  321.7281895°, actual value:  -38.2718105°
constraining angle 7 3 4 10 to   82.2076336°, actual value:   82.2076336°

          :  Hamiltonian                  GFN2-xTB          :
 * total energy  :   -17.2304031 Eh     change       -0.7805312E-11 Eh
 * total energy  :   -17.2329249 Eh     change       -0.2521858E-02 Eh
 * total energy  :   -17.2329269 Eh     change       -0.1981383E-05 Eh
 * total energy  :   -17.2330066 Eh     change       -0.7970021E-04 Eh
 * total energy  :   -17.2330475 Eh     change       -0.4088735E-04 Eh
 * total energy  :   -17.2330582 Eh     change       -0.1075783E-04 Eh
 * total energy  :   -17.2330690 Eh     change       -0.1072567E-04 Eh
 * total energy  :   -17.2330694 Eh     change       -0.4747132E-06 Eh
 * total energy  :   -17.2330698 Eh     change       -0.3276412E-06 Eh
   *** GEOMETRY OPTIMIZATION CONVERGED AFTER 9 ITERATIONS ***

 final structure:
================
11
 xtb: 6.5.0 (97a52f5)
N           -1.65041884444696       -0.55392270129787        0.29431476451042
C           -0.41200435751348       -0.24804122317347       -0.17049731862584
C            0.69949558557375       -0.33877428603810        0.86898243611170
N            1.74342088605896        0.61639343760750        0.54380390681760
O           -0.19327548396858       -0.01524226399461       -1.33637038238180
H            1.03618014947872       -1.39118758928085        0.85054485982281
H            0.32061434181069       -0.12440644178736        1.87290610396129
H           -2.41979722480987       -0.42979594566348       -0.34611621621430
H           -1.86384345391916       -0.48067775484389        1.27372773979795
H            2.62972065760959        0.32838053749033        0.94580210164242
H            1.86530774412632        0.61897523098181       -0.46671899544221

          :  Hamiltonian                  GFN2-xTB          :
         :: total energy             -17.233069767671 Eh    ::
         :: gradient norm              0.000341992044 Eh/a0 ::
         :: HOMO-LUMO gap              4.210131309040 eV    ::
         :: SCC energy               -17.423237220979 Eh    ::
         :: -> dispersion             -0.005133607286 Eh    ::
         :: repulsion energy           0.190163598798 Eh    ::

    * Orbital Energies and Occupations

         #    Occupation            Energy/Eh            Energy/eV
      -------------------------------------------------------------
         1        2.0000           -0.7044515             -19.1691
       ...           ...                  ...                  ...
         3        2.0000           -0.6451697             -17.5560
         4        2.0000           -0.6042207             -16.4417
         5        2.0000           -0.5842825             -15.8991
         6        2.0000           -0.5626986             -15.3118
         7        2.0000           -0.5512249             -14.9996
         8        2.0000           -0.5490012             -14.9391
         9        2.0000           -0.5105369             -13.8924
        10        2.0000           -0.5035944             -13.7035
        11        2.0000           -0.4870542             -13.2534
        12        2.0000           -0.4668545             -12.7038
        13        2.0000           -0.4285841             -11.6624
        14        2.0000           -0.4024609             -10.9515
        15        2.0000           -0.3705057             -10.0820 (HOMO)
        16                         -0.2157862              -5.8718 (LUMO)
        17                          0.0090249               0.2456
        18                          0.0663177               1.8046
        19                          0.0958548               2.6083
        20                          0.1274324               3.4676
        21                          0.1453070               3.9540
        22                          0.2019798               5.4961
        23                          0.2219450               6.0394
        24                          0.2422404               6.5917
        25                          0.3536859               9.6243
        26                          0.6388806              17.3848
      -------------------------------------------------------------
                  HL-Gap            0.1547195 Eh            4.2101 eV

     #   Z          covCN         q      C6AA      α(0)
     1   7 N        2.637    -0.278    27.186     7.744
     2   6 C        2.744     0.284    22.189     7.713
     3   6 C        3.733    -0.005    20.763     6.504
     4   7 N        2.631    -0.338    28.715     7.958
     5   8 O        0.859    -0.415    21.991     6.287
     6   1 H        0.922     0.032     2.552     2.498
     7   1 H        0.924     0.040     2.444     2.445
     8   1 H        0.860     0.196     1.129     1.664
     9   1 H        0.860     0.181     1.210     1.723
    10   1 H        0.860     0.140     1.470     1.899
    11   1 H        0.860     0.164     1.310     1.793

Wiberg/Mayer (AO) data.
largest (>0.10) Wiberg bond orders for each atom

     #   Z sym  total        # sym  WBO       # sym  WBO       # sym  WBO
 ---------------------------------------------------------------------------
     1   7 N    3.345 --     2 C    1.235     9 H    0.947     8 H    0.941
                             5 O    0.191
     2   6 C    3.946 --     5 O    1.722     1 N    1.235     3 C    0.958
     3   6 C    3.992 --     4 N    1.032     7 H    0.968     2 C    0.958
                             6 H    0.946
     4   7 N    2.997 --     3 C    1.032    10 H    0.967    11 H    0.953
     5   8 O    2.029 --     2 C    1.722     1 N    0.191
     6   1 H    0.999 --     3 C    0.946
     7   1 H    0.998 --     3 C    0.968
     8   1 H    0.962 --     1 N    0.941
     9   1 H    0.967 --     1 N    0.947
    10   1 H    0.980 --     4 N    0.967
    11   1 H    0.973 --     4 N    0.953
 ---------------------------------------------------------------------------

molecular dipole:
                 x           y           z       tot (Debye)
 q only:       -0.493      -0.360       1.054
   full:       -0.506      -0.644       1.192       3.675

           -------------------------------------------------
          | TOTAL ENERGY              -17.233069767671 Eh   |
          | GRADIENT NORM               0.000341992044 Eh/α |
          | HOMO-LUMO GAP               4.210131309040 eV   |
           -------------------------------------------------

 * finished run on 2023/11/18 at 08:07:33.346
