   * xtb version 6.5.0 (97a52f5) compiled by 'conda@d2599ee0d4f4' on 2022-05-15
          program call               : /home/liuchw/anaconda3/envs/xtbenv/bin/xtb --gfn 2 --chrg 0 --uhf 0 25_27_Index_0-opt-2-3-090_preQMOPTprefit_xyzformat.xyz --opt --input xtb-opt-2-3-090_constr.txt

   ID    Z sym.   atoms
    1    7 N      1, 4
    2    6 C      2, 3
    3    8 O      5
    4    1 H      6-11
constraining angle 1 2 3 4 to   89.9749127°, actual value:   89.9749127°
constraining angle 8 1 2 3 to  175.0123721°, actual value:  175.0123721°
constraining angle 8 1 2 5 to  350.0302205°, actual value:   -9.9697795°
constraining angle 9 1 2 5 to  197.9881946°, actual value: -162.0118054°
constraining angle 9 1 2 3 to   22.9703461°, actual value:   22.9703461°
constraining angle 6 3 4 11 to   78.3191441°, actual value:   78.3191441°
constraining angle 7 3 4 11 to  198.7992077°, actual value: -161.2007923°
constraining angle 6 3 4 10 to  321.7250700°, actual value:  -38.2749300°
constraining angle 7 3 4 10 to   82.2051335°, actual value:   82.2051335°

          :  Hamiltonian                  GFN2-xTB          :
 * total energy  :   -17.2245382 Eh     change       -0.4291678E-11 Eh
 * total energy  :   -17.2275310 Eh     change       -0.2992790E-02 Eh
 * total energy  :   -17.2275217 Eh     change        0.9341215E-05 Eh
 * total energy  :   -17.2276631 Eh     change       -0.1414540E-03 Eh
 * total energy  :   -17.2277509 Eh     change       -0.8777932E-04 Eh
 * total energy  :   -17.2277536 Eh     change       -0.2726867E-05 Eh
 * total energy  :   -17.2277702 Eh     change       -0.1659991E-04 Eh
 * total energy  :   -17.2277706 Eh     change       -0.3155879E-06 Eh
 * total energy  :   -17.2277708 Eh     change       -0.2425576E-06 Eh
   *** GEOMETRY OPTIMIZATION CONVERGED AFTER 9 ITERATIONS ***

 final structure:
================
11
 xtb: 6.5.0 (97a52f5)
N           -1.20428999492430       -0.87810639312484       -0.15023377658680
C           -0.62294376671012        0.31570344784861        0.15754454358096
C            0.60338506299191        0.18407064663432        1.05574700272245
N            1.78856065949344        0.03718190855465        0.21612760848020
O           -0.99946742070498        1.35584819703138       -0.32105146314940
H            0.45975136612979       -0.64414181825178        1.76907208249599
H            0.71175222819362        1.11740473695672        1.61632215691408
H           -2.06359497320465       -0.84280190613715       -0.67730438863862
H           -1.07263841805012       -1.68418109814267        0.43638299524840
H            2.55115229104470       -0.35430757466688        0.76015435093859
H            1.60373395574071       -0.62497013670236       -0.53238111200586

          :  Hamiltonian                  GFN2-xTB          :
         :: total energy             -17.227770799134 Eh    ::
         :: gradient norm              0.000431489651 Eh/a0 ::
         :: HOMO-LUMO gap              4.266501100428 eV    ::
         :: SCC energy               -17.417783877876 Eh    ::
         :: -> dispersion             -0.005222434374 Eh    ::
         :: repulsion energy           0.190005399228 Eh    ::

    * Orbital Energies and Occupations

         #    Occupation            Energy/Eh            Energy/eV
      -------------------------------------------------------------
         1        2.0000           -0.7035569             -19.1448
       ...           ...                  ...                  ...
         3        2.0000           -0.6454364             -17.5632
         4        2.0000           -0.6065205             -16.5043
         5        2.0000           -0.5920051             -16.1093
         6        2.0000           -0.5659732             -15.4009
         7        2.0000           -0.5525790             -15.0364
         8        2.0000           -0.5424410             -14.7606
         9        2.0000           -0.5169618             -14.0672
        10        2.0000           -0.5075999             -13.8125
        11        2.0000           -0.4903955             -13.3443
        12        2.0000           -0.4722846             -12.8515
        13        2.0000           -0.4291305             -11.6772
        14        2.0000           -0.3993129             -10.8659
        15        2.0000           -0.3768932             -10.2558 (HOMO)
        16                         -0.2201022              -5.9893 (LUMO)
        17                          0.0102618               0.2792
        18                          0.0569386               1.5494
        19                          0.0932051               2.5362
        20                          0.1154660               3.1420
        21                          0.1601499               4.3579
        22                          0.1915024               5.2110
        23                          0.2078600               5.6562
        24                          0.2341103               6.3705
        25                          0.3468978               9.4396
        26                          0.6494040              17.6712
      -------------------------------------------------------------
                  HL-Gap            0.1567910 Eh            4.2665 eV

     #   Z          covCN         q      C6AA      α(0)
     1   7 N        2.638    -0.279    27.198     7.745
     2   6 C        2.744     0.284    22.186     7.712
     3   6 C        3.734    -0.009    20.821     6.513
     4   7 N        2.631    -0.329    28.462     7.923
     5   8 O        0.859    -0.399    21.662     6.240
     6   1 H        0.923     0.010     2.887     2.657
     7   1 H        0.924     0.066     2.133     2.284
     8   1 H        0.860     0.192     1.149     1.679
     9   1 H        0.860     0.178     1.226     1.735
    10   1 H        0.860     0.145     1.436     1.877
    11   1 H        0.860     0.141     1.467     1.898

Wiberg/Mayer (AO) data.
largest (>0.10) Wiberg bond orders for each atom

     #   Z sym  total        # sym  WBO       # sym  WBO       # sym  WBO
 ---------------------------------------------------------------------------
     1   7 N    3.342 --     2 C    1.224     9 H    0.948     8 H    0.943
                             5 O    0.197
     2   6 C    3.946 --     5 O    1.745     1 N    1.224     3 C    0.953
     3   6 C    3.987 --     4 N    1.016     7 H    0.968     6 H    0.967
                             2 C    0.953
     4   7 N    2.998 --     3 C    1.016    11 H    0.966    10 H    0.965
     5   8 O    2.042 --     2 C    1.745     1 N    0.197
     6   1 H    1.000 --     3 C    0.967
     7   1 H    0.996 --     3 C    0.968
     8   1 H    0.963 --     1 N    0.943
     9   1 H    0.968 --     1 N    0.948
    10   1 H    0.979 --     4 N    0.965
    11   1 H    0.980 --     4 N    0.966
 ---------------------------------------------------------------------------

molecular dipole:
                 x           y           z       tot (Debye)
 q only:        0.045      -1.425       0.457
   full:       -0.066      -2.044       0.739       5.528

           -------------------------------------------------
          | TOTAL ENERGY              -17.227770799134 Eh   |
          | GRADIENT NORM               0.000431489651 Eh/α |
          | HOMO-LUMO GAP               4.266501100428 eV   |
           -------------------------------------------------

 * finished run on 2023/11/18 at 08:10:16.760
