                               Psi4 1.6 release

  ==> Input File <==

--------------------------------------------------------------------------
molecule {
0 1
 N   -1.562953   -0.223814    0.334834
 C   -0.384061   -0.589868   -0.224230
 C    0.780875   -0.613145    0.759600
 N    1.410533    0.708546    0.769087
 O   -0.285345   -0.954178   -1.373078
 H    1.464402   -1.420745    0.463205
 H    0.411688   -0.820502    1.768899
 H   -2.353257   -0.115049   -0.283011
 H   -1.565060    0.318718    1.181511
 H    2.360694    0.639041    1.118729
 H    1.477888    1.052699   -0.185168
}
memory 20GB
set_num_threads(5)
psi4_io.set_default_path("/scratch/liuchw/Psi4-25_27_Index_0-farH_in17")
set freeze_core True
E, wfn = energy('wb97x-d/6-311+G*',return_wfn=True)
oeprop(wfn,"WIBERG_LOWDIN_INDICES")
clean()
--------------------------------------------------------------------------

    Molecular point group: c1

    Geometry (in Angstrom), charge = 0, multiplicity = 1:

       Center              X                  Y                   Z               Mass
    ------------   -----------------  -----------------  -----------------  -----------------
         N           -1.561248188334     0.090292440952     0.280593120993    14.003074004430
         C           -0.382356188334    -0.275761559048    -0.278470879007    12.000000000000
         C            0.782579811666    -0.299038559048     0.705359120993    12.000000000000
         N            1.412237811666     1.022652440952     0.714846120993    14.003074004430
         O           -0.283640188334    -0.640071559048    -1.427318879007    15.994914619570
         H            1.466106811666    -1.106638559048     0.408964120993     1.007825032230
         H            0.413392811666    -0.506395559048     1.714658120993     1.007825032230
         H           -2.351552188334     0.199057440952    -0.337251879007     1.007825032230
         H           -1.563355188334     0.632824440952     1.127270120993     1.007825032230
         H            2.362398811666     0.953147440952     1.064488120993     1.007825032230
         H            1.479592811666     1.366805440952    -0.239408879007     1.007825032230

  Charge       = 0
  Multiplicity = 1
  Basis Set: 6-311+G*
    Blend: 6-311+G*
  Basis Set: (6-311+G* AUX)
    Blend: HEAVY-AUG-CC-PVTZ-JKFIT

    Orbital Energies [Eh]
    ---------------------

    Doubly Occupied:

       1A    -19.220020     2A    -14.459211     3A    -14.427050
       4A    -10.394348     5A    -10.321446     6A     -1.155165
       7A     -1.022464     8A     -0.996825     9A     -0.806106
      10A     -0.688035    11A     -0.641134    12A     -0.606264
      13A     -0.569573    14A     -0.533502    15A     -0.507996
      16A     -0.489382    17A     -0.480158    18A     -0.370567
      19A     -0.347996    20A     -0.337613

  @DF-RKS Final Energy:  -264.54395166531316

   => Energetics <=

    Nuclear Repulsion Energy =            180.4325992868310777
    One-Electron Energy =                -716.5257058626563094
    Two-Electron Energy =                 296.1142324131248529
    DFT Exchange-Correlation Energy =     -24.5612857423383879
    Empirical Dispersion Energy =          -0.0037917602743869
    VV10 Nonlocal Energy =                  0.0000000000000000
    Total Energy =                       -264.5439516653131591
 Dipole X            :         -1.7272007            1.6926872           -0.0345135
 Dipole Y            :         -1.0439642            1.4362705            0.3923064
 Dipole Z            :         -2.5238242            3.4951861            0.9713619
 Magnitude           :                                                    1.0481600
*** Psi4 exiting successfully. Buy a developer a beer!
