   * xtb version 6.5.0 (97a52f5) compiled by 'conda@d2599ee0d4f4' on 2022-05-15
          program call               : /home/liuchw/anaconda3/envs/xtbenv/bin/xtb --gfn 2 --chrg 0 --uhf 0 25_27_Index_0-opt-2-3-060_preQMOPTprefit_xyzformat.xyz --opt --input xtb-opt-2-3-060_constr.txt

   ID    Z sym.   atoms
    1    7 N      1, 4
    2    6 C      2, 3
    3    8 O      5
    4    1 H      6-11
constraining angle 1 2 3 4 to   60.0686385°, actual value:   60.0686385°
constraining angle 8 1 2 3 to  175.0183316°, actual value:  175.0183316°
constraining angle 8 1 2 5 to  350.0277093°, actual value:   -9.9722907°
constraining angle 9 1 2 5 to  197.9899704°, actual value: -162.0100296°
constraining angle 9 1 2 3 to   22.9805926°, actual value:   22.9805926°
constraining angle 6 3 4 11 to   78.3256873°, actual value:   78.3256873°
constraining angle 7 3 4 11 to  198.8009439°, actual value: -161.1990561°
constraining angle 6 3 4 10 to  321.7206871°, actual value:  -38.2793129°
constraining angle 7 3 4 10 to   82.1959437°, actual value:   82.1959437°

          :  Hamiltonian                  GFN2-xTB          :
 * total energy  :   -17.2253748 Eh     change       -0.3374012E-10 Eh
 * total energy  :   -17.2284829 Eh     change       -0.3108070E-02 Eh
 * total energy  :   -17.2280235 Eh     change        0.4593768E-03 Eh
 * total energy  :   -17.2287170 Eh     change       -0.6935496E-03 Eh
 * total energy  :   -17.2286983 Eh     change        0.1874341E-04 Eh
 * total energy  :   -17.2287573 Eh     change       -0.5896732E-04 Eh
 * total energy  :   -17.2287582 Eh     change       -0.9759519E-06 Eh
 * total energy  :   -17.2287600 Eh     change       -0.1750788E-05 Eh
   *** GEOMETRY OPTIMIZATION CONVERGED AFTER 8 ITERATIONS ***

 final structure:
================
11
 xtb: 6.5.0 (97a52f5)
N           -1.06999474159665       -0.83628698783646       -0.28118365101686
C           -0.69259229494248        0.35416475815598        0.26323332318140
C            0.61365571612734        0.28524727946177        1.04806029614430
N            1.71520809002854       -0.14319456120980        0.19349238259911
O           -1.29672072932524        1.37685203058170        0.05478391534690
H            0.45210752647912       -0.36972477418413        1.92211108261987
H            0.83566550248488        1.29397660050731        1.40591992120883
H           -1.96545978576596       -0.86088893965003       -0.74370192298603
H           -0.73821334437353       -1.70643867789103        0.09901409973174
H            2.47721677887214       -0.49459739048764        0.76518331324946
H            1.42452728201185       -0.91740933744767       -0.39653176007873

          :  Hamiltonian                  GFN2-xTB          :
         :: total energy             -17.228760000298 Eh    ::
         :: gradient norm              0.000813196988 Eh/a0 ::
         :: HOMO-LUMO gap              4.315791497749 eV    ::
         :: SCC energy               -17.418849044849 Eh    ::
         :: -> dispersion             -0.005229992926 Eh    ::
         :: repulsion energy           0.190079665463 Eh    ::

    * Orbital Energies and Occupations

         #    Occupation            Energy/Eh            Energy/eV
      -------------------------------------------------------------
         1        2.0000           -0.7041460             -19.1608
       ...           ...                  ...                  ...
         3        2.0000           -0.6454297             -17.5630
         4        2.0000           -0.6081030             -16.5473
         5        2.0000           -0.5920480             -16.1104
         6        2.0000           -0.5698844             -15.5073
         7        2.0000           -0.5520240             -15.0213
         8        2.0000           -0.5431805             -14.7807
         9        2.0000           -0.5180355             -14.0965
        10        2.0000           -0.5089085             -13.8481
        11        2.0000           -0.4894670             -13.3191
        12        2.0000           -0.4741385             -12.9020
        13        2.0000           -0.4297002             -11.6927
        14        2.0000           -0.4004747             -10.8975
        15        2.0000           -0.3784977             -10.2994 (HOMO)
        16                         -0.2198953              -5.9837 (LUMO)
        17                          0.0039090               0.1064
        18                          0.0526014               1.4314
        19                          0.0995724               2.7095
        20                          0.1151396               3.1331
        21                          0.1512032               4.1144
        22                          0.2017065               5.4887
        23                          0.2176502               5.9226
        24                          0.2339304               6.3656
        25                          0.3391636               9.2291
        26                          0.6464088              17.5897
      -------------------------------------------------------------
                  HL-Gap            0.1586024 Eh            4.3158 eV

     #   Z          covCN         q      C6AA      α(0)
     1   7 N        2.638    -0.275    27.112     7.733
     2   6 C        2.743     0.285    22.179     7.711
     3   6 C        3.734    -0.010    20.849     6.517
     4   7 N        2.629    -0.335    28.616     7.945
     5   8 O        0.859    -0.405    21.771     6.256
     6   1 H        0.923     0.018     2.767     2.601
     7   1 H        0.924     0.068     2.105     2.269
     8   1 H        0.860     0.192     1.147     1.677
     9   1 H        0.860     0.177     1.232     1.739
    10   1 H        0.860     0.144     1.444     1.882
    11   1 H        0.860     0.141     1.465     1.896

Wiberg/Mayer (AO) data.
largest (>0.10) Wiberg bond orders for each atom

     #   Z sym  total        # sym  WBO       # sym  WBO       # sym  WBO
 ---------------------------------------------------------------------------
     1   7 N    3.343 --     2 C    1.225     9 H    0.948     8 H    0.943
                             5 O    0.194
     2   6 C    3.946 --     5 O    1.741     1 N    1.225     3 C    0.955
     3   6 C    3.986 --     4 N    1.020     7 H    0.971     6 H    0.958
                             2 C    0.955
     4   7 N    2.997 --     3 C    1.020    10 H    0.966    11 H    0.963
     5   8 O    2.037 --     2 C    1.741     1 N    0.194
     6   1 H    1.000 --     3 C    0.958
     7   1 H    0.995 --     3 C    0.971
     8   1 H    0.963 --     1 N    0.943
     9   1 H    0.969 --     1 N    0.948
    10   1 H    0.979 --     4 N    0.966
    11   1 H    0.980 --     4 N    0.963
 ---------------------------------------------------------------------------

molecular dipole:
                 x           y           z       tot (Debye)
 q only:        0.293      -1.450       0.215
   full:        0.217      -2.070       0.519       5.451

           -------------------------------------------------
          | TOTAL ENERGY              -17.228760000298 Eh   |
          | GRADIENT NORM               0.000813196988 Eh/α |
          | HOMO-LUMO GAP               4.315791497749 eV   |
           -------------------------------------------------

 * finished run on 2023/11/18 at 08:10:40.432
