                               Psi4 1.6 release

  ==> Input File <==

--------------------------------------------------------------------------
molecule {
0 1
 N   -1.380593    0.049681    0.246320
 C   -0.436144   -0.841197   -0.139355
 C    0.882911   -0.709007    0.613310
 N    1.149592    0.661254    1.041273
 O   -0.645842   -1.723143   -0.940466
 H    1.679704   -1.169412    0.016241
 H    0.739199   -1.311993    1.519403
 H   -2.245040    0.056760   -0.272702
 H   -1.099908    0.907471    0.690708
 H    2.127884    0.761019    1.288988
 H    0.983640    1.300269    0.266658
}
memory 20GB
set_num_threads(5)
psi4_io.set_default_path("/scratch/liuchw/Psi4-25_27_Index_0-farH_in17")
set freeze_core True
E, wfn = energy('wb97x-d/6-311+G*',return_wfn=True)
oeprop(wfn,"WIBERG_LOWDIN_INDICES")
clean()
--------------------------------------------------------------------------

    Molecular point group: c1

    Geometry (in Angstrom), charge = 0, multiplicity = 1:

       Center              X                  Y                   Z               Mass
    ------------   -----------------  -----------------  -----------------  -----------------
         N           -1.299549268055     0.531264835628     0.081402636483    14.003074004430
         C           -0.355100268055    -0.359613164372    -0.304272363517    12.000000000000
         C            0.963954731945    -0.227423164372     0.448392636483    12.000000000000
         N            1.230635731945     1.142837835628     0.876355636483    14.003074004430
         O           -0.564798268055    -1.241559164372    -1.105383363517    15.994914619570
         H            1.760747731945    -0.687828164372    -0.148676363517     1.007825032230
         H            0.820242731945    -0.830409164372     1.354485636483     1.007825032230
         H           -2.163996268055     0.538343835628    -0.437619363517     1.007825032230
         H           -1.018864268055     1.389054835628     0.525790636483     1.007825032230
         H            2.208927731945     1.242602835628     1.124070636483     1.007825032230
         H            1.064683731945     1.781852835628     0.101740636483     1.007825032230

  Charge       = 0
  Multiplicity = 1
  Basis Set: 6-311+G*
    Blend: 6-311+G*
  Basis Set: (6-311+G* AUX)
    Blend: HEAVY-AUG-CC-PVTZ-JKFIT

    Orbital Energies [Eh]
    ---------------------

    Doubly Occupied:

       1A    -19.214869     2A    -14.455036     3A    -14.436795
       4A    -10.392517     5A    -10.323606     6A     -1.150677
       7A     -1.028287     8A     -0.997004     9A     -0.809920
      10A     -0.687211    11A     -0.649703    12A     -0.592761
      13A     -0.571310    14A     -0.543824    15A     -0.519147
      16A     -0.489895    17A     -0.469234    18A     -0.364660
      19A     -0.351167    20A     -0.343343

  @DF-RKS Final Energy:  -264.54636664463743

   => Energetics <=

    Nuclear Repulsion Energy =            181.0777376240254171
    One-Electron Energy =                -717.7872252234537882
    Two-Electron Energy =                 296.7307687568559800
    DFT Exchange-Correlation Energy =     -24.5638692744322924
    Empirical Dispersion Energy =          -0.0037785276327386
    VV10 Nonlocal Energy =                  0.0000000000000000
    Total Energy =                       -264.5463666446374305
 Dipole X            :         -2.0394463            2.5021623            0.4627161
 Dipole Y            :         -1.9459441            3.2080830            1.2621390
 Dipole Z            :         -1.9529828            2.3541347            0.4011520
 Magnitude           :                                                    1.4028627
*** Psi4 exiting successfully. Buy a developer a beer!
