                               Psi4 1.6 release

  ==> Input File <==

--------------------------------------------------------------------------
molecule {
0 1
 N   -1.650419   -0.553923    0.294315
 C   -0.412004   -0.248041   -0.170497
 C    0.699496   -0.338774    0.868982
 N    1.743421    0.616393    0.543804
 O   -0.193275   -0.015242   -1.336370
 H    1.036180   -1.391188    0.850545
 H    0.320614   -0.124406    1.872906
 H   -2.419797   -0.429796   -0.346116
 H   -1.863843   -0.480678    1.273728
 H    2.629721    0.328381    0.945802
 H    1.865308    0.618975   -0.466719
}
memory 20GB
set_num_threads(5)
psi4_io.set_default_path("/scratch/liuchw/Psi4-25_27_Index_0-farH_in17")
set freeze_core True
E, wfn = energy('wb97x-d/6-311+G*',return_wfn=True)
oeprop(wfn,"WIBERG_LOWDIN_INDICES")
clean()
--------------------------------------------------------------------------

    Molecular point group: c1

    Geometry (in Angstrom), charge = 0, multiplicity = 1:

       Center              X                  Y                   Z               Mass
    ------------   -----------------  -----------------  -----------------  -----------------
         N           -1.694191340735    -0.447220806065     0.255078256890    14.003074004430
         C           -0.455776340735    -0.141338806065    -0.209733743110    12.000000000000
         C            0.655723659265    -0.232071806065     0.829745256890    12.000000000000
         N            1.699648659265     0.723095193935     0.504567256890    14.003074004430
         O           -0.237047340735     0.091460193935    -1.375606743110    15.994914619570
         H            0.992407659265    -1.284485806065     0.811308256890     1.007825032230
         H            0.276841659265    -0.017703806065     1.833669256890     1.007825032230
         H           -2.463569340735    -0.323093806065    -0.385352743110     1.007825032230
         H           -1.907615340735    -0.373975806065     1.234491256890     1.007825032230
         H            2.585948659265     0.435083193935     0.906565256890     1.007825032230
         H            1.821535659265     0.725677193935    -0.505955743110     1.007825032230

  Charge       = 0
  Multiplicity = 1
  Basis Set: 6-311+G*
    Blend: 6-311+G*
  Basis Set: (6-311+G* AUX)
    Blend: HEAVY-AUG-CC-PVTZ-JKFIT

    Orbital Energies [Eh]
    ---------------------

    Doubly Occupied:

       1A    -19.222790     2A    -14.463189     3A    -14.413973
       4A    -10.397802     5A    -10.323986     6A     -1.159090
       7A     -1.022996     8A     -0.991723     9A     -0.806991
      10A     -0.686933    11A     -0.642409    12A     -0.607213
      13A     -0.570923    14A     -0.536735    15A     -0.504782
      16A     -0.485439    17A     -0.477642    18A     -0.371943
      19A     -0.355781    20A     -0.328428

  @DF-RKS Final Energy:  -264.54716898165293

   => Energetics <=

    Nuclear Repulsion Energy =            180.7734815409102112
    One-Electron Energy =                -717.2229509964556655
    Two-Electron Energy =                 296.4669351151058549
    DFT Exchange-Correlation Energy =     -24.5610589677158728
    Empirical Dispersion Energy =          -0.0035756734974247
    VV10 Nonlocal Energy =                  0.0000000000000000
    Total Energy =                       -264.5471689816529306
 Dipole X            :         -1.6700526            1.2227574           -0.4472952
 Dipole Y            :          0.1479144           -0.7864289           -0.6385145
 Dipole Z            :         -2.4930540            3.6423701            1.1493162
 Magnitude           :                                                    1.3887770
*** Psi4 exiting successfully. Buy a developer a beer!
