   * xtb version 6.5.0 (97a52f5) compiled by 'conda@d2599ee0d4f4' on 2022-05-15
          program call               : /home/liuchw/anaconda3/envs/xtbenv/bin/xtb --gfn 2 --chrg 0 --uhf 0 25_27_Index_0-opt-2-3-120_preQMOPTprefit_xyzformat.xyz --opt --input xtb-opt-2-3-120_constr.txt

   ID    Z sym.   atoms
    1    7 N      1, 4
    2    6 C      2, 3
    3    8 O      5
    4    1 H      6-11
constraining angle 1 2 3 4 to  119.9788524°, actual value:  119.9788524°
constraining angle 8 1 2 3 to  175.0068575°, actual value:  175.0068575°
constraining angle 8 1 2 5 to  350.0346155°, actual value:   -9.9653845°
constraining angle 9 1 2 5 to  197.9960459°, actual value: -162.0039541°
constraining angle 9 1 2 3 to   22.9682879°, actual value:   22.9682879°
constraining angle 6 3 4 11 to   78.3264486°, actual value:   78.3264486°
constraining angle 7 3 4 11 to  198.7973648°, actual value: -161.2026352°
constraining angle 6 3 4 10 to  321.7330647°, actual value:  -38.2669353°
constraining angle 7 3 4 10 to   82.2039810°, actual value:   82.2039810°

          :  Hamiltonian                  GFN2-xTB          :
 * total energy  :   -17.2239507 Eh     change       -0.2764011E-10 Eh
 * total energy  :   -17.2267988 Eh     change       -0.2848050E-02 Eh
 * total energy  :   -17.2268114 Eh     change       -0.1261005E-04 Eh
 * total energy  :   -17.2269183 Eh     change       -0.1068895E-03 Eh
 * total energy  :   -17.2269868 Eh     change       -0.6852350E-04 Eh
 * total energy  :   -17.2270106 Eh     change       -0.2376841E-04 Eh
 * total energy  :   -17.2270306 Eh     change       -0.1997592E-04 Eh
 * total energy  :   -17.2270312 Eh     change       -0.6172573E-06 Eh
 * total energy  :   -17.2270315 Eh     change       -0.2878937E-06 Eh
   *** GEOMETRY OPTIMIZATION CONVERGED AFTER 9 ITERATIONS ***

 final structure:
================
11
 xtb: 6.5.0 (97a52f5)
N           -1.37255629099525       -0.87107557519146       -0.01494123994929
C           -0.56197678394658        0.22283701912393        0.05646955738835
C            0.61748698535319        0.06267891932206        1.01273700391855
N            1.86426331845903        0.21506584335506        0.27335364475755
O           -0.72594226219443        1.18456688834012       -0.65176577149983
H            0.53388069653543       -0.89829299683552        1.54623239608878
H            0.56620996917080        0.87765661690687        1.74336878794558
H           -2.20632808711222       -0.77817336718979       -0.57571570212959
H           -1.40882458274366       -1.54184258286907        0.73322006429744
H            2.63139357347261       -0.18518646548838        0.80425973219899
H            1.81779345400109       -0.30653431947381       -0.59683748301653

          :  Hamiltonian                  GFN2-xTB          :
         :: total energy             -17.227031456958 Eh    ::
         :: gradient norm              0.000569394968 Eh/a0 ::
         :: HOMO-LUMO gap              4.258748466917 eV    ::
         :: SCC energy               -17.416895602131 Eh    ::
         :: -> dispersion             -0.005173546296 Eh    ::
         :: repulsion energy           0.189857800347 Eh    ::

    * Orbital Energies and Occupations

         #    Occupation            Energy/Eh            Energy/eV
      -------------------------------------------------------------
         1        2.0000           -0.7026210             -19.1193
       ...           ...                  ...                  ...
         3        2.0000           -0.6451474             -17.5554
         4        2.0000           -0.6054093             -16.4740
         5        2.0000           -0.5897590             -16.0482
         6        2.0000           -0.5639202             -15.3451
         7        2.0000           -0.5523670             -15.0307
         8        2.0000           -0.5419194             -14.7464
         9        2.0000           -0.5137204             -13.9790
        10        2.0000           -0.5067032             -13.7881
        11        2.0000           -0.4899975             -13.3335
        12        2.0000           -0.4710114             -12.8169
        13        2.0000           -0.4275896             -11.6353
        14        2.0000           -0.3977004             -10.8220
        15        2.0000           -0.3739567             -10.1759 (HOMO)
        16                         -0.2174506              -5.9171 (LUMO)
        17                          0.0080049               0.2178
        18                          0.0591965               1.6108
        19                          0.0899765               2.4484
        20                          0.1253262               3.4103
        21                          0.1589270               4.3246
        22                          0.1883996               5.1266
        23                          0.2048219               5.5735
        24                          0.2369721               6.4483
        25                          0.3536799               9.6241
        26                          0.6489844              17.6598
      -------------------------------------------------------------
                  HL-Gap            0.1565061 Eh            4.2587 eV

     #   Z          covCN         q      C6AA      α(0)
     1   7 N        2.637    -0.281    27.248     7.753
     2   6 C        2.744     0.282    22.230     7.720
     3   6 C        3.733    -0.007    20.794     6.508
     4   7 N        2.630    -0.324    28.341     7.907
     5   8 O        0.859    -0.399    21.653     6.239
     6   1 H        0.923     0.010     2.895     2.661
     7   1 H        0.924     0.063     2.162     2.299
     8   1 H        0.860     0.192     1.145     1.676
     9   1 H        0.860     0.177     1.230     1.737
    10   1 H        0.860     0.144     1.446     1.884
    11   1 H        0.860     0.142     1.454     1.889

Wiberg/Mayer (AO) data.
largest (>0.10) Wiberg bond orders for each atom

     #   Z sym  total        # sym  WBO       # sym  WBO       # sym  WBO
 ---------------------------------------------------------------------------
     1   7 N    3.340 --     2 C    1.223     9 H    0.947     8 H    0.942
                             5 O    0.196
     2   6 C    3.947 --     5 O    1.743     1 N    1.223     3 C    0.955
     3   6 C    3.989 --     4 N    1.021     6 H    0.969     7 H    0.958
                             2 C    0.955
     4   7 N    3.000 --     3 C    1.021    11 H    0.966    10 H    0.966
     5   8 O    2.043 --     2 C    1.743     1 N    0.196
     6   1 H    1.000 --     3 C    0.969
     7   1 H    0.996 --     3 C    0.958
     8   1 H    0.963 --     1 N    0.942
     9   1 H    0.969 --     1 N    0.947
    10   1 H    0.979 --     4 N    0.966
    11   1 H    0.980 --     4 N    0.966
 ---------------------------------------------------------------------------

molecular dipole:
                 x           y           z       tot (Debye)
 q only:       -0.168      -1.288       0.678
   full:       -0.297      -1.861       0.946       5.360

           -------------------------------------------------
          | TOTAL ENERGY              -17.227031456958 Eh   |
          | GRADIENT NORM               0.000569394968 Eh/α |
          | HOMO-LUMO GAP               4.258748466917 eV   |
           -------------------------------------------------

 * finished run on 2023/11/18 at 08:09:57.541
