   * xtb version 6.5.0 (97a52f5) compiled by 'conda@d2599ee0d4f4' on 2022-05-15
          program call               : /home/liuchw/anaconda3/envs/xtbenv/bin/xtb --gfn 2 --chrg 0 --uhf 0 25_27_Index_0-opt-2-3-030_preQMOPTprefit_xyzformat.xyz --opt --input xtb-opt-2-3-030_constr.txt

   ID    Z sym.   atoms
    1    7 N      1, 4
    2    6 C      2, 3
    3    8 O      5
    4    1 H      6-11
constraining angle 1 2 3 4 to   30.0923882°, actual value:   30.0923882°
constraining angle 8 1 2 3 to  175.0185611°, actual value:  175.0185611°
constraining angle 8 1 2 5 to  350.0291640°, actual value:   -9.9708360°
constraining angle 9 1 2 5 to  197.9979669°, actual value: -162.0020331°
constraining angle 9 1 2 3 to   22.9873640°, actual value:   22.9873640°
constraining angle 6 3 4 11 to   78.3262521°, actual value:   78.3262521°
constraining angle 7 3 4 11 to  198.7684981°, actual value: -161.2315019°
constraining angle 6 3 4 10 to  321.7345360°, actual value:  -38.2654640°
constraining angle 7 3 4 10 to   82.1767820°, actual value:   82.1767820°

          :  Hamiltonian                  GFN2-xTB          :
 * total energy  :   -17.2246550 Eh     change       -0.4302336E-11 Eh
 * total energy  :   -17.2276459 Eh     change       -0.2990856E-02 Eh
 * total energy  :   -17.2264538 Eh     change        0.1192079E-02 Eh
 * total energy  :   -17.2278725 Eh     change       -0.1418672E-02 Eh
 * total energy  :   -17.2278109 Eh     change        0.6156742E-04 Eh
 * total energy  :   -17.2279156 Eh     change       -0.1046414E-03 Eh
 * total energy  :   -17.2279158 Eh     change       -0.2007930E-06 Eh
 * total energy  :   -17.2279177 Eh     change       -0.1978625E-05 Eh
   *** GEOMETRY OPTIMIZATION CONVERGED AFTER 8 ITERATIONS ***

 final structure:
================
11
 xtb: 6.5.0 (97a52f5)
N           -1.29177183559519        0.21088988851428       -0.02166578440265
C           -0.51724266427686       -0.90003674537612        0.08500263933091
C            0.93581172470666       -0.69054403453736        0.50320854174237
N            1.17382428784841        0.45779972420597        1.36527510600213
O           -0.97882895389873       -2.00906739228753       -0.05501067392308
H            1.51964099693567       -0.66973349740203       -0.43340331855575
H            1.20577084783570       -1.59180639013357        1.06028347136568
H           -2.22584363467658        0.06793932622346       -0.37361541617816
H           -0.89504102080175        1.12210674355328       -0.17266959984513
H            2.15756522467661        0.70625820181754        1.33188133318746
H            0.67151702724605        1.27789716542209        1.04109468127621

          :  Hamiltonian                  GFN2-xTB          :
         :: total energy             -17.227917733252 Eh    ::
         :: gradient norm              0.000725161014 Eh/a0 ::
         :: HOMO-LUMO gap              4.517554004160 eV    ::
         :: SCC energy               -17.418104409274 Eh    ::
         :: -> dispersion             -0.005176516845 Eh    ::
         :: repulsion energy           0.190174573399 Eh    ::

    * Orbital Energies and Occupations

         #    Occupation            Energy/Eh            Energy/eV
      -------------------------------------------------------------
         1        2.0000           -0.7019056             -19.0998
       ...           ...                  ...                  ...
         3        2.0000           -0.6456237             -17.5683
         4        2.0000           -0.6097960             -16.5934
         5        2.0000           -0.5901599             -16.0591
         6        2.0000           -0.5729592             -15.5910
         7        2.0000           -0.5505413             -14.9810
         8        2.0000           -0.5412223             -14.7274
         9        2.0000           -0.5198555             -14.1460
        10        2.0000           -0.5080216             -13.8240
        11        2.0000           -0.4862279             -13.2309
        12        2.0000           -0.4748673             -12.9218
        13        2.0000           -0.4269106             -11.6168
        14        2.0000           -0.3987037             -10.8493
        15        2.0000           -0.3808330             -10.3630 (HOMO)
        16                         -0.2148159              -5.8454 (LUMO)
        17                         -0.0090577              -0.2465
        18                          0.0421593               1.1472
        19                          0.1080999               2.9415
        20                          0.1311361               3.5684
        21                          0.1342516               3.6532
        22                          0.1980923               5.3904
        23                          0.2245444               6.1102
        24                          0.2439543               6.6383
        25                          0.3687599              10.0345
        26                          0.6316531              17.1882
      -------------------------------------------------------------
                  HL-Gap            0.1660171 Eh            4.5176 eV

     #   Z          covCN         q      C6AA      α(0)
     1   7 N        2.636    -0.269    26.961     7.712
     2   6 C        2.741     0.281    22.241     7.722
     3   6 C        3.732    -0.012    20.880     6.522
     4   7 N        2.628    -0.336    28.663     7.951
     5   8 O        0.859    -0.421    22.094     6.302
     6   1 H        0.923     0.031     2.579     2.512
     7   1 H        0.924     0.074     2.038     2.233
     8   1 H        0.860     0.194     1.137     1.670
     9   1 H        0.860     0.176     1.236     1.741
    10   1 H        0.860     0.144     1.440     1.880
    11   1 H        0.860     0.137     1.493     1.914

Wiberg/Mayer (AO) data.
largest (>0.10) Wiberg bond orders for each atom

     #   Z sym  total        # sym  WBO       # sym  WBO       # sym  WBO
 ---------------------------------------------------------------------------
     1   7 N    3.349 --     2 C    1.234     9 H    0.943     8 H    0.941
                             5 O    0.191
     2   6 C    3.947 --     5 O    1.720     1 N    1.234     3 C    0.960
     3   6 C    3.985 --     4 N    1.026     7 H    0.963     2 C    0.960
                             6 H    0.950
     4   7 N    2.999 --     3 C    1.026    10 H    0.966    11 H    0.959
     5   8 O    2.019 --     2 C    1.720     1 N    0.191
     6   1 H    0.999 --     3 C    0.950
     7   1 H    0.994 --     3 C    0.963
     8   1 H    0.962 --     1 N    0.941
     9   1 H    0.969 --     1 N    0.943
    10   1 H    0.979 --     4 N    0.966
    11   1 H    0.981 --     4 N    0.959
 ---------------------------------------------------------------------------

molecular dipole:
                 x           y           z       tot (Debye)
 q only:        0.297       1.396      -0.217
   full:        0.482       1.807      -0.682       5.061

           -------------------------------------------------
          | TOTAL ENERGY              -17.227917733252 Eh   |
          | GRADIENT NORM               0.000725161014 Eh/α |
          | HOMO-LUMO GAP               4.517554004160 eV   |
           -------------------------------------------------

 * finished run on 2023/11/18 at 08:09:07.641
