                               Psi4 1.6 release

  ==> Input File <==

--------------------------------------------------------------------------
molecule {
0 1
 N   -1.450689   -0.072239    0.310317
 C   -0.396519   -0.743246   -0.213185
 C    0.828319   -0.691144    0.692949
 N    1.229942    0.703325    0.890521
 O   -0.452977   -1.387285   -1.234455
 H    1.615663   -1.328182    0.269763
 H    0.539686   -1.098802    1.668168
 H   -2.281742    0.013336   -0.254244
 H   -1.270069    0.648171    0.989705
 H    2.191236    0.745846    1.211680
 H    1.202554    1.191923   -0.000839
}
memory 20GB
set_num_threads(5)
psi4_io.set_default_path("/scratch/liuchw/Psi4-25_27_Index_0-farH_in17")
set freeze_core True
E, wfn = energy('wb97x-d/6-311+G*',return_wfn=True)
oeprop(wfn,"WIBERG_LOWDIN_INDICES")
clean()
--------------------------------------------------------------------------

    Molecular point group: c1

    Geometry (in Angstrom), charge = 0, multiplicity = 1:

       Center              X                  Y                   Z               Mass
    ------------   -----------------  -----------------  -----------------  -----------------
         N           -1.408258315621     0.338189312905     0.219265045381    14.003074004430
         C           -0.354088315621    -0.332817687095    -0.304236954619    12.000000000000
         C            0.870749684379    -0.280715687095     0.601897045381    12.000000000000
         N            1.272372684379     1.113753312905     0.799469045381    14.003074004430
         O           -0.410546315621    -0.976856687095    -1.325506954619    15.994914619570
         H            1.658093684379    -0.917753687095     0.178711045381     1.007825032230
         H            0.582116684379    -0.688373687095     1.577116045381     1.007825032230
         H           -2.239311315621     0.423764312905    -0.345295954619     1.007825032230
         H           -1.227638315621     1.058599312905     0.898653045381     1.007825032230
         H            2.233666684379     1.156274312905     1.120628045381     1.007825032230
         H            1.244984684379     1.602351312905    -0.091890954619     1.007825032230

  Charge       = 0
  Multiplicity = 1
  Basis Set: 6-311+G*
    Blend: 6-311+G*
  Basis Set: (6-311+G* AUX)
    Blend: HEAVY-AUG-CC-PVTZ-JKFIT

    Orbital Energies [Eh]
    ---------------------

    Doubly Occupied:

       1A    -19.218475     2A    -14.454313     3A    -14.433721
       4A    -10.392203     5A    -10.321689     6A     -1.152674
       7A     -1.025351     8A     -0.996635     9A     -0.807391
      10A     -0.686363    11A     -0.641746    12A     -0.601295
      13A     -0.569683    14A     -0.533509    15A     -0.519789
      16A     -0.489703    17A     -0.473559    18A     -0.367436
      19A     -0.350401    20A     -0.340675

  @DF-RKS Final Energy:  -264.54625379784278

   => Energetics <=

    Nuclear Repulsion Energy =            180.9945584441204574
    One-Electron Energy =                -717.6495877438231901
    Two-Electron Energy =                 296.6757003664549757
    DFT Exchange-Correlation Energy =     -24.5630815248090677
    Empirical Dispersion Energy =          -0.0038433397859284
    VV10 Nonlocal Energy =                  0.0000000000000000
    Total Energy =                       -264.5462537978427804
 Dipole X            :         -1.8475997            2.1095209            0.2619212
 Dipole Y            :         -1.5855366            2.4611916            0.8756551
 Dipole Z            :         -2.3652533            3.1198713            0.7546180
 Magnitude           :                                                    1.1852522
*** Psi4 exiting successfully. Buy a developer a beer!
