                               Psi4 1.6 release

  ==> Input File <==

--------------------------------------------------------------------------
molecule {
0 1
 N   -1.507442   -0.809270    0.119889
 C   -0.505733    0.101063   -0.046543
 C    0.638768   -0.063959    0.949745
 N    1.891899    0.373395    0.358343
 O   -0.502466    0.888301   -0.959557
 H    0.647894   -1.115784    1.283254
 H    0.430337    0.572509    1.818045
 H   -2.322620   -0.694136   -0.463155
 H   -1.646902   -1.269301    1.002972
 H    2.674136   -0.031969    0.862513
 H    1.957528    0.030853   -0.595128
}
memory 20GB
set_num_threads(5)
psi4_io.set_default_path("/scratch/liuchw/Psi4-25_27_Index_0-farH_in17")
set freeze_core True
E, wfn = energy('wb97x-d/6-311+G*',return_wfn=True)
oeprop(wfn,"WIBERG_LOWDIN_INDICES")
clean()
--------------------------------------------------------------------------

    Molecular point group: c1

    Geometry (in Angstrom), charge = 0, multiplicity = 1:

       Center              X                  Y                   Z               Mass
    ------------   -----------------  -----------------  -----------------  -----------------
         N           -1.516856034240    -0.890602431558     0.037156260626    14.003074004430
         C           -0.515147034240     0.019730568442    -0.129275739374    12.000000000000
         C            0.629353965760    -0.145291431558     0.867012260626    12.000000000000
         N            1.882484965760     0.292062568442     0.275610260626    14.003074004430
         O           -0.511880034240     0.806968568442    -1.042289739374    15.994914619570
         H            0.638479965760    -1.197116431558     1.200521260626     1.007825032230
         H            0.420922965760     0.491176568442     1.735312260626     1.007825032230
         H           -2.332034034240    -0.775468431558    -0.545887739374     1.007825032230
         H           -1.656316034240    -1.350633431558     0.920239260626     1.007825032230
         H            2.664721965760    -0.113301431558     0.779780260626     1.007825032230
         H            1.948113965760    -0.050479431558    -0.677860739374     1.007825032230

  Charge       = 0
  Multiplicity = 1
  Basis Set: 6-311+G*
    Blend: 6-311+G*
  Basis Set: (6-311+G* AUX)
    Blend: HEAVY-AUG-CC-PVTZ-JKFIT

    Orbital Energies [Eh]
    ---------------------

    Doubly Occupied:

       1A    -19.218917     2A    -14.460159     3A    -14.416947
       4A    -10.395269     5A    -10.324578     6A     -1.156002
       7A     -1.019727     8A     -0.993496     9A     -0.807938
      10A     -0.686205    11A     -0.640093    12A     -0.604476
      13A     -0.563039    14A     -0.527481    15A     -0.525531
      16A     -0.489340    17A     -0.469105    18A     -0.368713
      19A     -0.347552    20A     -0.329740

  @DF-RKS Final Energy:  -264.54130549040855

   => Energetics <=

    Nuclear Repulsion Energy =            180.3534041542306170
    One-Electron Energy =                -716.4246929625327311
    Two-Electron Energy =                 296.0929705822316009
    DFT Exchange-Correlation Energy =     -24.5593520887206758
    Empirical Dispersion Energy =          -0.0036351756172870
    VV10 Nonlocal Energy =                  0.0000000000000000
    Total Energy =                       -264.5413054904084902
 Dipole X            :         -1.9447236            1.5750728           -0.3696508
 Dipole Y            :          1.3402492           -2.8028763           -1.4626271
 Dipole Z            :         -2.1007222            3.1928273            1.0921051
 Magnitude           :                                                    1.8624214
*** Psi4 exiting successfully. Buy a developer a beer!
