                               Psi4 1.6 release

  ==> Input File <==

--------------------------------------------------------------------------
molecule {
0 1
 N   -1.599740   -0.701199    0.228686
 C   -0.451738   -0.062471   -0.129673
 C    0.664049   -0.193540    0.901572
 N    1.849245    0.511286    0.453568
 O   -0.315156    0.468401   -1.204580
 H    0.816212   -1.279188    1.044167
 H    0.340381    0.230198    1.858126
 H   -2.394284   -0.582329   -0.380766
 H   -1.797786   -0.898157    1.194301
 H    2.676156    0.137437    0.908168
 H    1.968061    0.351264   -0.543191
}
memory 20GB
set_num_threads(5)
psi4_io.set_default_path("/scratch/liuchw/Psi4-25_27_Index_0-farH_in17")
set freeze_core True
E, wfn = energy('wb97x-d/6-311+G*',return_wfn=True)
oeprop(wfn,"WIBERG_LOWDIN_INDICES")
clean()
--------------------------------------------------------------------------

    Molecular point group: c1

    Geometry (in Angstrom), charge = 0, multiplicity = 1:

       Center              X                  Y                   Z               Mass
    ------------   -----------------  -----------------  -----------------  -----------------
         N           -1.635149513504    -0.697198785686     0.179231270690    14.003074004430
         C           -0.487147513504    -0.058470785686    -0.179127729310    12.000000000000
         C            0.628639486496    -0.189539785686     0.852117270690    12.000000000000
         N            1.813835486496     0.515286214314     0.404113270690    14.003074004430
         O           -0.350565513504     0.472401214314    -1.254034729310    15.994914619570
         H            0.780802486496    -1.275187785686     0.994712270690     1.007825032230
         H            0.304971486496     0.234198214314     1.808671270690     1.007825032230
         H           -2.429693513504    -0.578328785686    -0.430220729310     1.007825032230
         H           -1.833195513504    -0.894156785686     1.144846270690     1.007825032230
         H            2.640746486496     0.141437214314     0.858713270690     1.007825032230
         H            1.932651486496     0.355264214314    -0.592645729310     1.007825032230

  Charge       = 0
  Multiplicity = 1
  Basis Set: 6-311+G*
    Blend: 6-311+G*
  Basis Set: (6-311+G* AUX)
    Blend: HEAVY-AUG-CC-PVTZ-JKFIT

    Orbital Energies [Eh]
    ---------------------

    Doubly Occupied:

       1A    -19.222404     2A    -14.460111     3A    -14.413321
       4A    -10.396899     5A    -10.324445     6A     -1.158573
       7A     -1.021081     8A     -0.991730     9A     -0.808072
      10A     -0.684900    11A     -0.640575    12A     -0.605381
      13A     -0.568287    14A     -0.534375    15A     -0.515867
      16A     -0.485352    17A     -0.472162    18A     -0.371481
      19A     -0.352449    20A     -0.327705

  @DF-RKS Final Energy:  -264.54525913512668

   => Energetics <=

    Nuclear Repulsion Energy =            180.6746984440960091
    One-Electron Energy =                -717.0522777606570344
    Two-Electron Energy =                 296.3973723653625711
    DFT Exchange-Correlation Energy =     -24.5614445692368335
    Empirical Dispersion Energy =          -0.0036076146915247
    VV10 Nonlocal Energy =                  0.0000000000000000
    Total Energy =                       -264.5452591351267415
 Dipole X            :         -1.7585121            1.3067692           -0.4517430
 Dipole Y            :          0.7950910           -1.8878656           -1.0927745
 Dipole Z            :         -2.3788479            3.5397364            1.1608885
 Magnitude           :                                                    1.6570727
*** Psi4 exiting successfully. Buy a developer a beer!
