   * xtb version 6.5.0 (97a52f5) compiled by 'conda@d2599ee0d4f4' on 2022-05-15
          program call               : /home/liuchw/anaconda3/envs/xtbenv/bin/xtb --gfn 2 --chrg 0 --uhf 0 25_27_Index_0-opt-2-3-180_preQMOPTprefit_xyzformat.xyz --opt --input xtb-opt-2-3-180_constr.txt

   ID    Z sym.   atoms
    1    7 N      1, 4
    2    6 C      2, 3
    3    8 O      5
    4    1 H      6-11
constraining angle 1 2 3 4 to  180.0441369°, actual value: -179.9558631°
constraining angle 8 1 2 3 to  175.0301650°, actual value:  175.0301650°
constraining angle 8 1 2 5 to  350.0076988°, actual value:   -9.9923012°
constraining angle 9 1 2 5 to  197.9657804°, actual value: -162.0342196°
constraining angle 9 1 2 3 to   22.9882466°, actual value:   22.9882466°
constraining angle 6 3 4 11 to   78.3270663°, actual value:   78.3270663°
constraining angle 7 3 4 11 to  198.8074635°, actual value: -161.1925365°
constraining angle 6 3 4 10 to  321.7275567°, actual value:  -38.2724433°
constraining angle 7 3 4 10 to   82.2079539°, actual value:   82.2079539°

          :  Hamiltonian                  GFN2-xTB          :
 * total energy  :   -17.2288623 Eh     change       -0.1841727E-10 Eh
 * total energy  :   -17.2315047 Eh     change       -0.2642428E-02 Eh
 * total energy  :   -17.2315581 Eh     change       -0.5339415E-04 Eh
 * total energy  :   -17.2316058 Eh     change       -0.4764967E-04 Eh
 * total energy  :   -17.2316342 Eh     change       -0.2842594E-04 Eh
 * total energy  :   -17.2316700 Eh     change       -0.3576247E-04 Eh
 * total energy  :   -17.2316843 Eh     change       -0.1436886E-04 Eh
 * total energy  :   -17.2316852 Eh     change       -0.8495515E-06 Eh
 * total energy  :   -17.2316856 Eh     change       -0.3950920E-06 Eh
   *** GEOMETRY OPTIMIZATION CONVERGED AFTER 9 ITERATIONS ***

 final structure:
================
11
 xtb: 6.5.0 (97a52f5)
N           -1.59973976116728       -0.70119854020183        0.22868593601658
C           -0.45173810741654       -0.06247090116447       -0.12967306949024
C            0.66404908560448       -0.19354039134104        0.90157235952622
N            1.84924528271442        0.51128611011221        0.45356789265364
O           -0.31515643725057        0.46840063303429       -1.20457991817432
H            0.81621214760458       -1.27918848676130        1.04416702331155
H            0.34038057474147        0.23019817115841        1.85812586153850
H           -2.39428441867089       -0.58232909515474       -0.38076559241054
H           -1.79778575631643       -0.89815714914361        1.19430107549181
H            2.67615640152552        0.13743703130800        0.90816818719732
H            1.96806098863120        0.35126363815403       -0.54319073566057

          :  Hamiltonian                  GFN2-xTB          :
         :: total energy             -17.231685589537 Eh    ::
         :: gradient norm              0.000675330600 Eh/a0 ::
         :: HOMO-LUMO gap              4.218154077983 eV    ::
         :: SCC energy               -17.422042013165 Eh    ::
         :: -> dispersion             -0.005123672078 Eh    ::
         :: repulsion energy           0.190348148050 Eh    ::

    * Orbital Energies and Occupations

         #    Occupation            Energy/Eh            Energy/eV
      -------------------------------------------------------------
         1        2.0000           -0.7038668             -19.1532
       ...           ...                  ...                  ...
         3        2.0000           -0.6449732             -17.5506
         4        2.0000           -0.6038744             -16.4323
         5        2.0000           -0.5843763             -15.9017
         6        2.0000           -0.5613290             -15.2745
         7        2.0000           -0.5523116             -15.0292
         8        2.0000           -0.5477249             -14.9044
         9        2.0000           -0.5093855             -13.8611
        10        2.0000           -0.5049042             -13.7391
        11        2.0000           -0.4878408             -13.2748
        12        2.0000           -0.4663516             -12.6901
        13        2.0000           -0.4275316             -11.6337
        14        2.0000           -0.4012909             -10.9197
        15        2.0000           -0.3693078             -10.0494 (HOMO)
        16                         -0.2142935              -5.8312 (LUMO)
        17                          0.0048438               0.1318
        18                          0.0664911               1.8093
        19                          0.0949369               2.5834
        20                          0.1290496               3.5116
        21                          0.1511391               4.1127
        22                          0.2035076               5.5377
        23                          0.2200908               5.9890
        24                          0.2435527               6.6274
        25                          0.3376278               9.1873
        26                          0.6488207              17.6553
      -------------------------------------------------------------
                  HL-Gap            0.1550143 Eh            4.2182 eV

     #   Z          covCN         q      C6AA      α(0)
     1   7 N        2.638    -0.283    27.319     7.763
     2   6 C        2.744     0.282    22.216     7.718
     3   6 C        3.734    -0.006    20.776     6.505
     4   7 N        2.630    -0.332    28.554     7.936
     5   8 O        0.859    -0.406    21.805     6.261
     6   1 H        0.922     0.026     2.649     2.546
     7   1 H        0.924     0.049     2.331     2.388
     8   1 H        0.860     0.194     1.135     1.669
     9   1 H        0.860     0.177     1.230     1.737
    10   1 H        0.860     0.139     1.478     1.905
    11   1 H        0.860     0.160     1.333     1.809

Wiberg/Mayer (AO) data.
largest (>0.10) Wiberg bond orders for each atom

     #   Z sym  total        # sym  WBO       # sym  WBO       # sym  WBO
 ---------------------------------------------------------------------------
     1   7 N    3.333 --     2 C    1.222     9 H    0.950     8 H    0.942
                             5 O    0.189
     2   6 C    3.947 --     5 O    1.733     1 N    1.222     3 C    0.959
     3   6 C    3.993 --     4 N    1.036     7 H    0.959     2 C    0.959
                             6 H    0.951
     4   7 N    3.000 --     3 C    1.036    10 H    0.968    11 H    0.956
     5   8 O    2.039 --     2 C    1.733     1 N    0.189
     6   1 H    0.999 --     3 C    0.951
     7   1 H    0.998 --     3 C    0.959
     8   1 H    0.962 --     1 N    0.942
     9   1 H    0.969 --     1 N    0.950
    10   1 H    0.981 --     4 N    0.968
    11   1 H    0.974 --     4 N    0.956
 ---------------------------------------------------------------------------

molecular dipole:
                 x           y           z       tot (Debye)
 q only:       -0.422      -0.749       0.995
   full:       -0.508      -1.147       1.200       4.412

           -------------------------------------------------
          | TOTAL ENERGY              -17.231685589537 Eh   |
          | GRADIENT NORM               0.000675330600 Eh/α |
          | HOMO-LUMO GAP               4.218154077983 eV   |
           -------------------------------------------------

 * finished run on 2023/11/18 at 08:09:22.409
