   * xtb version 6.5.0 (97a52f5) compiled by 'conda@d2599ee0d4f4' on 2022-05-15
          program call               : /home/liuchw/anaconda3/envs/xtbenv/bin/xtb --gfn 2 --chrg 0 --uhf 0 25_27_Index_0-opt-2-3-000_preQMOPTprefit_xyzformat.xyz --opt --input xtb-opt-2-3-000_constr.txt

   ID    Z sym.   atoms
    1    7 N      1, 4
    2    6 C      2, 3
    3    8 O      5
    4    1 H      6-11
constraining angle 1 2 3 4 to  359.9173291°, actual value:   -0.0826709°
constraining angle 8 1 2 3 to  175.0052098°, actual value:  175.0052098°
constraining angle 8 1 2 5 to  350.0408026°, actual value:   -9.9591974°
constraining angle 9 1 2 5 to  197.9821791°, actual value: -162.0178209°
constraining angle 9 1 2 3 to   22.9465863°, actual value:   22.9465863°
constraining angle 6 3 4 11 to   78.2929186°, actual value:   78.2929186°
constraining angle 7 3 4 11 to  198.7264808°, actual value: -161.2735192°
constraining angle 6 3 4 10 to  321.7447604°, actual value:  -38.2552396°
constraining angle 7 3 4 10 to   82.1783226°, actual value:   82.1783226°

          :  Hamiltonian                  GFN2-xTB          :
 * total energy  :   -17.2261817 Eh     change       -0.1113776E-10 Eh
 * total energy  :   -17.2292331 Eh     change       -0.3051414E-02 Eh
 * total energy  :   -17.2285558 Eh     change        0.6772399E-03 Eh
 * total energy  :   -17.2294763 Eh     change       -0.9205097E-03 Eh
 * total energy  :   -17.2294380 Eh     change        0.3829144E-04 Eh
 * total energy  :   -17.2295351 Eh     change       -0.9702412E-04 Eh
 * total energy  :   -17.2295348 Eh     change        0.2979240E-06 Eh
 * total energy  :   -17.2295406 Eh     change       -0.5811518E-05 Eh
 * total energy  :   -17.2295406 Eh     change       -0.5870342E-07 Eh
 * total energy  :   -17.2295409 Eh     change       -0.2503886E-06 Eh
   *** GEOMETRY OPTIMIZATION CONVERGED AFTER 10 ITERATIONS ***

 final structure:
================
11
 xtb: 6.5.0 (97a52f5)
N           -1.35640777106154        0.14538037060867        0.12089475998359
C           -0.47989357277802       -0.87708744938173       -0.03019951011875
C            0.91802528634263       -0.69504591635755        0.55378965453853
N            1.16783690914779        0.57584325508422        1.21731784547511
O           -0.80835940664008       -1.93191122973965       -0.52627198689559
H            1.63465170943108       -0.94640651105520       -0.24076306398873
H            0.96504499156978       -1.47534249666761        1.32309166632667
H           -2.24687586216257        0.03517680321210       -0.34000480651848
H           -1.05016813953944        1.08902310055776        0.27717586108515
H            2.16732243001690        0.70925447580202        1.32827645247857
H            0.84422641567347        1.35281760793698        0.64707214763394

          :  Hamiltonian                  GFN2-xTB          :
         :: total energy             -17.229540889287 Eh    ::
         :: gradient norm              0.000276726623 Eh/a0 ::
         :: HOMO-LUMO gap              4.737063187342 eV    ::
         :: SCC energy               -17.419964182982 Eh    ::
         :: -> dispersion             -0.005156042626 Eh    ::
         :: repulsion energy           0.190404189646 Eh    ::

    * Orbital Energies and Occupations

         #    Occupation            Energy/Eh            Energy/eV
      -------------------------------------------------------------
         1        2.0000           -0.6999129             -19.0456
       ...           ...                  ...                  ...
         3        2.0000           -0.6452373             -17.5578
         4        2.0000           -0.6100409             -16.6001
         5        2.0000           -0.5864529             -15.9582
         6        2.0000           -0.5725332             -15.5794
         7        2.0000           -0.5491194             -14.9423
         8        2.0000           -0.5382430             -14.6463
         9        2.0000           -0.5225301             -14.2188
        10        2.0000           -0.5056777             -13.7602
        11        2.0000           -0.4848268             -13.1928
        12        2.0000           -0.4754909             -12.9388
        13        2.0000           -0.4236562             -11.5283
        14        2.0000           -0.3963805             -10.7861
        15        2.0000           -0.3842569             -10.4562 (HOMO)
        16                         -0.2101730              -5.7191 (LUMO)
        17                         -0.0085653              -0.2331
        18                          0.0395220               1.0754
        19                          0.1122853               3.0554
        20                          0.1288901               3.5073
        21                          0.1404267               3.8212
        22                          0.1971012               5.3634
        23                          0.2254518               6.1349
        24                          0.2409955               6.5578
        25                          0.3814728              10.3804
        26                          0.6292657              17.1232
      -------------------------------------------------------------
                  HL-Gap            0.1740839 Eh            4.7371 eV

     #   Z          covCN         q      C6AA      α(0)
     1   7 N        2.636    -0.267    26.925     7.706
     2   6 C        2.741     0.279    22.278     7.728
     3   6 C        3.732    -0.013    20.907     6.526
     4   7 N        2.628    -0.339    28.741     7.962
     5   8 O        0.859    -0.431    22.308     6.333
     6   1 H        0.923     0.040     2.448     2.447
     7   1 H        0.924     0.074     2.038     2.233
     8   1 H        0.860     0.193     1.141     1.673
     9   1 H        0.860     0.184     1.189     1.708
    10   1 H        0.860     0.146     1.428     1.872
    11   1 H        0.860     0.134     1.517     1.930

Wiberg/Mayer (AO) data.
largest (>0.10) Wiberg bond orders for each atom

     #   Z sym  total        # sym  WBO       # sym  WBO       # sym  WBO
 ---------------------------------------------------------------------------
     1   7 N    3.356 --     2 C    1.244     8 H    0.942     9 H    0.938
                             5 O    0.192
     2   6 C    3.949 --     5 O    1.706     1 N    1.244     3 C    0.963
     3   6 C    3.984 --     4 N    1.027     2 C    0.963     6 H    0.955
                             7 H    0.949
     4   7 N    2.997 --     3 C    1.027    10 H    0.965    11 H    0.959
     5   8 O    2.008 --     2 C    1.706     1 N    0.192
     6   1 H    0.998 --     3 C    0.955
     7   1 H    0.994 --     3 C    0.949
     8   1 H    0.963 --     1 N    0.942
     9   1 H    0.966 --     1 N    0.938
    10   1 H    0.979 --     4 N    0.965
    11   1 H    0.982 --     4 N    0.959
 ---------------------------------------------------------------------------

molecular dipole:
                 x           y           z       tot (Debye)
 q only:        0.202       1.337       0.227
   full:        0.438       1.670      -0.114       4.399

           -------------------------------------------------
          | TOTAL ENERGY              -17.229540889287 Eh   |
          | GRADIENT NORM               0.000276726623 Eh/α |
          | HOMO-LUMO GAP               4.737063187342 eV   |
           -------------------------------------------------

 * finished run on 2023/11/18 at 08:08:51.973
