   * xtb version 6.5.0 (97a52f5) compiled by 'conda@d2599ee0d4f4' on 2022-05-15
          program call               : /home/liuchw/anaconda3/envs/xtbenv/bin/xtb --gfn 2 --chrg 0 --uhf 0 25_27_Index_0-opt-2-3-240_preQMOPTprefit_xyzformat.xyz --opt --input xtb-opt-2-3-240_constr.txt

   ID    Z sym.   atoms
    1    7 N      1, 4
    2    6 C      2, 3
    3    8 O      5
    4    1 H      6-11
constraining angle 1 2 3 4 to  240.0140594°, actual value: -119.9859406°
constraining angle 8 1 2 3 to  175.0194767°, actual value:  175.0194767°
constraining angle 8 1 2 5 to  350.0207215°, actual value:   -9.9792785°
constraining angle 9 1 2 5 to  197.9834857°, actual value: -162.0165143°
constraining angle 9 1 2 3 to   22.9822409°, actual value:   22.9822409°
constraining angle 6 3 4 11 to   78.2961337°, actual value:   78.2961337°
constraining angle 7 3 4 11 to  198.7770059°, actual value: -161.2229941°
constraining angle 6 3 4 10 to  321.7259285°, actual value:  -38.2740715°
constraining angle 7 3 4 10 to   82.2068007°, actual value:   82.2068007°

          :  Hamiltonian                  GFN2-xTB          :
 * total energy  :   -17.2298842 Eh     change       -0.8668621E-11 Eh
 * total energy  :   -17.2324158 Eh     change       -0.2531573E-02 Eh
 * total energy  :   -17.2322444 Eh     change        0.1713949E-03 Eh
 * total energy  :   -17.2325558 Eh     change       -0.3114523E-03 Eh
 * total energy  :   -17.2325687 Eh     change       -0.1290676E-04 Eh
 * total energy  :   -17.2325743 Eh     change       -0.5540045E-05 Eh
 * total energy  :   -17.2325764 Eh     change       -0.2076527E-05 Eh
 * total energy  :   -17.2325771 Eh     change       -0.6937544E-06 Eh
   *** GEOMETRY OPTIMIZATION CONVERGED AFTER 8 ITERATIONS ***

 final structure:
================
11
 xtb: 6.5.0 (97a52f5)
N           -1.63958433984321       -0.38951946111509        0.32859743592677
C           -0.39222826746289       -0.41853738692470       -0.20121536442818
C            0.73981281684932       -0.49237732293965        0.81761803856851
N            1.59310333683040        0.67955785862775        0.65457449614108
O           -0.19087422150692       -0.47609006936911       -1.39267144991184
H            1.26435026476252       -1.44527380659767        0.64484197602392
H            0.34718062468466       -0.49511902512898        1.83903518459066
H           -2.40593613116917       -0.26236574703214       -0.31554899149946
H           -1.78530977012058       -0.07593246702255        1.27247999354013
H            2.52085289678158        0.49478164812352        1.02247323221326
H            1.70403378019430        0.86257576937864       -0.33980556116484

          :  Hamiltonian                  GFN2-xTB          :
         :: total energy             -17.232577057952 Eh    ::
         :: gradient norm              0.000836166653 Eh/a0 ::
         :: HOMO-LUMO gap              4.291229496897 eV    ::
         :: SCC energy               -17.422687982679 Eh    ::
         :: -> dispersion             -0.005157345235 Eh    ::
         :: repulsion energy           0.190104959600 Eh    ::

    * Orbital Energies and Occupations

         #    Occupation            Energy/Eh            Energy/eV
      -------------------------------------------------------------
         1        2.0000           -0.7043523             -19.1664
       ...           ...                  ...                  ...
         3        2.0000           -0.6453265             -17.5602
         4        2.0000           -0.6049894             -16.4626
         5        2.0000           -0.5853684             -15.9287
         6        2.0000           -0.5646052             -15.3637
         7        2.0000           -0.5519885             -15.0204
         8        2.0000           -0.5458230             -14.8526
         9        2.0000           -0.5125156             -13.9463
        10        2.0000           -0.5024799             -13.6732
        11        2.0000           -0.4875277             -13.2663
        12        2.0000           -0.4730174             -12.8715
        13        2.0000           -0.4284290             -11.6581
        14        2.0000           -0.4000417             -10.8857
        15        2.0000           -0.3757560             -10.2248 (HOMO)
        16                         -0.2180562              -5.9336 (LUMO)
        17                          0.0134745               0.3667
        18                          0.0611417               1.6638
        19                          0.0953859               2.5956
        20                          0.1218310               3.3152
        21                          0.1510272               4.1097
        22                          0.1973503               5.3702
        23                          0.2164348               5.8895
        24                          0.2388923               6.5006
        25                          0.3613852               9.8338
        26                          0.6357808              17.3005
      -------------------------------------------------------------
                  HL-Gap            0.1576998 Eh            4.2912 eV

     #   Z          covCN         q      C6AA      α(0)
     1   7 N        2.637    -0.273    27.068     7.727
     2   6 C        2.745     0.285    22.176     7.711
     3   6 C        3.733    -0.007    20.800     6.509
     4   7 N        2.631    -0.340    28.752     7.964
     5   8 O        0.859    -0.420    22.079     6.300
     6   1 H        0.923     0.037     2.489     2.467
     7   1 H        0.924     0.039     2.465     2.455
     8   1 H        0.860     0.195     1.131     1.666
     9   1 H        0.860     0.185     1.184     1.705
    10   1 H        0.860     0.144     1.445     1.883
    11   1 H        0.860     0.156     1.363     1.829

Wiberg/Mayer (AO) data.
largest (>0.10) Wiberg bond orders for each atom

     #   Z sym  total        # sym  WBO       # sym  WBO       # sym  WBO
 ---------------------------------------------------------------------------
     1   7 N    3.356 --     2 C    1.244     9 H    0.945     8 H    0.941
                             5 O    0.195
     2   6 C    3.946 --     5 O    1.720     1 N    1.244     3 C    0.956
     3   6 C    3.990 --     4 N    1.021     7 H    0.973     2 C    0.956
                             6 H    0.956
     4   7 N    2.994 --     3 C    1.021    10 H    0.966    11 H    0.960
     5   8 O    2.021 --     2 C    1.720     1 N    0.195
     6   1 H    0.999 --     3 C    0.956
     7   1 H    0.998 --     3 C    0.973
     8   1 H    0.962 --     1 N    0.941
     9   1 H    0.966 --     1 N    0.945
    10   1 H    0.979 --     4 N    0.966
    11   1 H    0.976 --     4 N    0.960
 ---------------------------------------------------------------------------

molecular dipole:
                 x           y           z       tot (Debye)
 q only:       -0.459       0.051       1.082
   full:       -0.378      -0.085       1.138       3.056

           -------------------------------------------------
          | TOTAL ENERGY              -17.232577057952 Eh   |
          | GRADIENT NORM               0.000836166653 Eh/α |
          | HOMO-LUMO GAP               4.291229496897 eV   |
           -------------------------------------------------

 * finished run on 2023/11/18 at 08:07:52.283
