                               Psi4 1.6 release

  ==> Input File <==

--------------------------------------------------------------------------
molecule {
0 1
C          1.74620       -1.05080        0.18250
N          2.96770       -1.22590        0.93830
C          4.20790       -0.75070        0.46350
C          5.41700       -0.91200        1.42550
C          2.83610       -1.83070        2.26690
O          4.37860       -0.19540       -0.62670
C          0.49640       -1.04020        0.82360
C         -0.69030       -0.69330       -1.27690
C         -0.69900       -0.87610        0.10610
C          0.54570       -0.74670       -1.92620
C          1.74110       -0.91260       -1.20990
H          3.76190       -2.31380        2.58500
H          2.07280       -2.61550        2.26200
H          2.58270       -1.04830        2.98880
N          6.60930       -0.19800        0.91940
H          5.63850       -1.98490        1.46880
H          5.16110       -0.54490        2.42510
H          0.40570       -1.13160        1.90150
H         -1.63560       -0.88150        0.65530
H          0.59670       -0.66530       -3.00930
H          2.65370       -0.96970       -1.79450
C          6.49030        1.26440        0.98430
H          6.57290        1.59800        2.02760
H          5.51790        1.62350        0.63090
H         -1.56360       -0.52500       -1.80050
H          6.75730       -0.46670       -0.05340
H          7.27020        1.65250        0.36300
}
memory 208GB
set_num_threads(51)
psi4_io.set_default_path("/scratch/liuchw/Psi4-farH_in17")
set maxiter 500
set freeze_core True
set PROPERTIES_ORIGIN ["COM"]
set cubeprop_tasks ['esp']
set basis MINIX
E, wfn = properties('hf',properties=['dipole','WIBERG_LOWDIN_INDICES','MULLIKEN_CHARGES'],return_wfn=True)
cubeprop(wfn)
fchk(wfn, "farH_in17-esp_frag.fchk")
clean()
--------------------------------------------------------------------------

    Molecular point group: c1

    Geometry (in Angstrom), charge = 0, multiplicity = 1:

       Center              X                  Y                   Z               Mass
    ------------   -----------------  -----------------  -----------------  -----------------
         C           -1.147451812338    -0.365906947649    -0.091464227527    12.000000000000
         N            0.074048187662    -0.541006947649     0.664335772473    14.003074004430
         C            1.314248187662    -0.065806947649     0.189535772473    12.000000000000
         C            2.523348187662    -0.227106947649     1.151535772473    12.000000000000
         C           -0.057551812338    -1.145806947649     1.992935772473    12.000000000000
         O            1.484948187662     0.489493052351    -0.900664227527    15.994914619570
         C           -2.397251812338    -0.355306947649     0.549635772473    12.000000000000
         C           -3.583951812338    -0.008406947649    -1.550864227527    12.000000000000
         C           -3.592651812338    -0.191206947649    -0.167864227527    12.000000000000
         C           -2.347951812338    -0.061806947649    -2.200164227527    12.000000000000
         C           -1.152551812338    -0.227706947649    -1.483864227527    12.000000000000
         H            0.868248187662    -1.628906947649     2.311035772473     1.007825032230
         H           -0.820851812338    -1.930606947649     1.988035772473     1.007825032230
         H           -0.310951812338    -0.363406947649     2.714835772473     1.007825032230
         N            3.715648187662     0.486893052351     0.645435772473    14.003074004430
         H            2.744848187662    -1.300006947649     1.194835772473     1.007825032230
         H            2.267448187662     0.139993052351     2.151135772473     1.007825032230
         H           -2.487951812338    -0.446706947649     1.627535772473     1.007825032230
         H           -4.529251812338    -0.196606947649     0.381335772473     1.007825032230
         H           -2.296951812338     0.019593052351    -3.283264227527     1.007825032230
         H           -0.239951812338    -0.284806947649    -2.068464227527     1.007825032230
         C            3.596648187662     1.949293052351     0.710335772473    12.000000000000
         H            3.679248187662     2.282893052351     1.753635772473     1.007825032230
         H            2.624248187662     2.308393052351     0.356935772473     1.007825032230
         H           -4.457251812338     0.159893052351    -2.074464227527     1.007825032230
         H            3.863648187662     0.218193052351    -0.327364227527     1.007825032230
         H            4.376548187662     2.337393052351     0.089035772473     1.007825032230

  Charge       = 0
  Multiplicity = 1
  Basis Set: MINIX
    Blend: MINIX
  Basis Set: (MINIX AUX)
    Blend: DEF2-UNIVERSAL-JKFIT

    Orbital Energies [Eh]
    ---------------------

    Doubly Occupied:

       1A    -20.300065     2A    -15.456153     3A    -15.373558
       4A    -11.319888     5A    -11.236934     6A    -11.219716
       7A    -11.211184     8A    -11.178203     9A    -11.175218
      10A    -11.173272    11A    -11.171150    12A    -11.170671
      13A    -11.167198    14A     -1.381004    15A     -1.247329
      16A     -1.190395    17A     -1.148240    18A     -1.028185
      19A     -1.015790    20A     -0.982066    21A     -0.951473
      22A     -0.877556    23A     -0.830991    24A     -0.818485
      25A     -0.751449    26A     -0.698309    27A     -0.690870
      28A     -0.673356    29A     -0.657056    30A     -0.638164
      31A     -0.621774    32A     -0.610713    33A     -0.595346
      34A     -0.585577    35A     -0.575767    36A     -0.559020
      37A     -0.548181    38A     -0.537855    39A     -0.520343
      40A     -0.507230    41A     -0.504360    42A     -0.497517
      43A     -0.485931    44A     -0.410054    45A     -0.408945
      46A     -0.349223    47A     -0.344331    48A     -0.311031

  @DF-RHF Final Energy:  -566.66845548674985

   => Energetics <=

    Nuclear Repulsion Energy =            775.6737225674442016
    One-Electron Energy =               -2309.2701783080974565
    Two-Electron Energy =                 966.9280002539034058
    Total Energy =                       -566.6684554867498491
 Dipole X            :         -5.4586343            4.9469742           -0.5116601
 Dipole Y            :         -1.7355667            1.2355654           -0.5000014
 Dipole Z            :         -5.4964994            6.3805358            0.8840364
 Magnitude           :                                                    1.1372413

  Mulliken Charges: (a.u.)
   Center  Symbol    Alpha    Beta     Spin     Total
       1     C     2.94982  2.94982  0.00000  0.10036
       2     N     3.65993  3.65993  0.00000 -0.31987
       3     C     2.80740  2.80740  0.00000  0.38521
       4     C     3.07852  3.07852  0.00000 -0.15705
       5     C     3.12326  3.12326  0.00000 -0.24652
       6     O     4.21283  4.21283  0.00000 -0.42567
       7     C     3.07678  3.07678  0.00000 -0.15355
       8     C     3.08002  3.08002  0.00000 -0.16004
       9     C     3.06504  3.06504  0.00000 -0.13007
      10     C     3.06391  3.06391  0.00000 -0.12783
      11     C     3.07076  3.07076  0.00000 -0.14151
      12     H     0.42888  0.42888  0.00000  0.14223
      13     H     0.42579  0.42579  0.00000  0.14843
      14     H     0.43255  0.43255  0.00000  0.13490
      15     N     3.69813  3.69813  0.00000 -0.39626
      16     H     0.42869  0.42869  0.00000  0.14261
      17     H     0.42850  0.42850  0.00000  0.14300
      18     H     0.43266  0.43266  0.00000  0.13468
      19     H     0.43047  0.43047  0.00000  0.13905
      20     H     0.42928  0.42928  0.00000  0.14145
      21     H     0.41642  0.41642  0.00000  0.16715
      22     C     3.13354  3.13354  0.00000 -0.26708
      23     H     0.43775  0.43775  0.00000  0.12450
      24     H     0.43723  0.43723  0.00000  0.12553
      25     H     0.43039  0.43039  0.00000  0.13923
      26     H     0.38851  0.38851  0.00000  0.22299
      27     H     0.43294  0.43294  0.00000  0.13413

   Total alpha = 48.00000, Total beta = 48.00000, Total charge =  0.00000

  Basis Set: MINIX
    Blend: MINIX
*** Psi4 exiting successfully. Buy a developer a beer!
