                               Psi4 1.6 release

  ==> Input File <==

--------------------------------------------------------------------------
molecule {
0 1
C          1.74620       -1.05080        0.18250
N          2.96770       -1.22590        0.93830
C          4.20790       -0.75070        0.46350
C          5.41700       -0.91200        1.42550
C          2.83610       -1.83070        2.26690
O          4.37860       -0.19540       -0.62670
C          0.49640       -1.04020        0.82360
C         -0.69030       -0.69330       -1.27690
C         -0.69900       -0.87610        0.10610
C          0.54570       -0.74670       -1.92620
C          1.74110       -0.91260       -1.20990
H          3.76190       -2.31380        2.58500
H          2.07280       -2.61550        2.26200
H          2.58270       -1.04830        2.98880
N          6.60930       -0.19800        0.91940
H          5.63850       -1.98490        1.46880
H          5.16110       -0.54490        2.42510
H          0.40570       -1.13160        1.90150
H         -1.63560       -0.88150        0.65530
H          0.59670       -0.66530       -3.00930
H          2.65370       -0.96970       -1.79450
C          7.86250       -0.64920        1.54090
H          8.11140       -1.63500        1.12980
H          7.74260       -0.77830        2.62420
H         -1.56360       -0.52500       -1.80050
H          6.49460        0.79800        1.10730
H          8.61940        0.08150        1.34590
}
memory 208GB
set_num_threads(51)
psi4_io.set_default_path("/scratch/liuchw/Psi4-farH_in17")
set maxiter 500
set freeze_core True
set PROPERTIES_ORIGIN ["COM"]
set cubeprop_tasks ['esp']
set basis MINIX
E, wfn = properties('hf',properties=['dipole','WIBERG_LOWDIN_INDICES','MULLIKEN_CHARGES'],return_wfn=True)
cubeprop(wfn)
fchk(wfn, "farH_in17-esp_frag.fchk")
clean()
--------------------------------------------------------------------------

    Molecular point group: c1

    Geometry (in Angstrom), charge = 0, multiplicity = 1:

       Center              X                  Y                   Z               Mass
    ------------   -----------------  -----------------  -----------------  -----------------
         C           -1.267343876542    -0.203363072254    -0.147292714611    12.000000000000
         N           -0.045843876542    -0.378463072254     0.608507285389    14.003074004430
         C            1.194356123458     0.096736927746     0.133707285389    12.000000000000
         C            2.403456123458    -0.064563072254     1.095707285389    12.000000000000
         C           -0.177443876542    -0.983263072254     1.937107285389    12.000000000000
         O            1.365056123458     0.652036927746    -0.956492714611    15.994914619570
         C           -2.517143876542    -0.192763072254     0.493807285389    12.000000000000
         C           -3.703843876542     0.154136927746    -1.606692714611    12.000000000000
         C           -3.712543876542    -0.028663072254    -0.223692714611    12.000000000000
         C           -2.467843876542     0.100736927746    -2.255992714611    12.000000000000
         C           -1.272443876542    -0.065163072254    -1.539692714611    12.000000000000
         H            0.748356123458    -1.466363072254     2.255207285389     1.007825032230
         H           -0.940743876542    -1.768063072254     1.932207285389     1.007825032230
         H           -0.430843876542    -0.200863072254     2.659007285389     1.007825032230
         N            3.595756123458     0.649436927746     0.589607285389    14.003074004430
         H            2.624956123458    -1.137463072254     1.139007285389     1.007825032230
         H            2.147556123458     0.302536927746     2.095307285389     1.007825032230
         H           -2.607843876542    -0.284163072254     1.571707285389     1.007825032230
         H           -4.649143876542    -0.034063072254     0.325507285389     1.007825032230
         H           -2.416843876542     0.182136927746    -3.339092714611     1.007825032230
         H           -0.359843876542    -0.122263072254    -2.124292714611     1.007825032230
         C            4.848956123458     0.198236927746     1.211107285389    12.000000000000
         H            5.097856123458    -0.787563072254     0.800007285389     1.007825032230
         H            4.729056123458     0.069136927746     2.294407285389     1.007825032230
         H           -4.577143876542     0.322436927746    -2.130292714611     1.007825032230
         H            3.481056123458     1.645436927746     0.777507285389     1.007825032230
         H            5.605856123458     0.928936927746     1.016107285389     1.007825032230

  Charge       = 0
  Multiplicity = 1
  Basis Set: MINIX
    Blend: MINIX
  Basis Set: (MINIX AUX)
    Blend: DEF2-UNIVERSAL-JKFIT

    Orbital Energies [Eh]
    ---------------------

    Doubly Occupied:

       1A    -20.298372     2A    -15.451426     3A    -15.375649
       4A    -11.316820     5A    -11.233862     6A    -11.217946
       7A    -11.211593     8A    -11.183813     9A    -11.175170
      10A    -11.171858    11A    -11.167939    12A    -11.167474
      13A    -11.163499    14A     -1.369817    15A     -1.242440
      16A     -1.194166    17A     -1.145027    18A     -1.025594
      19A     -1.012503    20A     -0.982046    21A     -0.949794
      22A     -0.879524    23A     -0.829286    24A     -0.816424
      25A     -0.750244    26A     -0.694971    27A     -0.681603
      28A     -0.674054    29A     -0.650581    30A     -0.645266
      31A     -0.617777    32A     -0.604962    33A     -0.603748
      34A     -0.576881    35A     -0.574180    36A     -0.557927
      37A     -0.546248    38A     -0.535236    39A     -0.528028
      40A     -0.513564    41A     -0.502745    42A     -0.496081
      43A     -0.481934    44A     -0.403120    45A     -0.388804
      46A     -0.354004    47A     -0.341499    48A     -0.306754

  @DF-RHF Final Energy:  -566.66065728719650

   => Energetics <=

    Nuclear Repulsion Energy =            764.4392693955406912
    One-Electron Energy =               -2286.9753736881748409
    Two-Electron Energy =                 955.8754470054377634
    Total Energy =                       -566.6606572871965000
 Dipole X            :         -8.0029364            7.9200082           -0.0829282
 Dipole Y            :          1.6859410           -2.2008789           -0.5149379
 Dipole Z            :         -6.9416256            8.6844242            1.7427986
 Magnitude           :                                                    1.8191716

  Mulliken Charges: (a.u.)
   Center  Symbol    Alpha    Beta     Spin     Total
       1     C     2.94948  2.94948  0.00000  0.10104
       2     N     3.66059  3.66059  0.00000 -0.32118
       3     C     2.80305  2.80305  0.00000  0.39389
       4     C     3.07735  3.07735  0.00000 -0.15471
       5     C     3.12300  3.12300  0.00000 -0.24599
       6     O     4.20113  4.20113  0.00000 -0.40226
       7     C     3.07714  3.07714  0.00000 -0.15429
       8     C     3.08033  3.08033  0.00000 -0.16067
       9     C     3.06531  3.06531  0.00000 -0.13063
      10     C     3.06392  3.06392  0.00000 -0.12784
      11     C     3.07055  3.07055  0.00000 -0.14109
      12     H     0.43024  0.43024  0.00000  0.13952
      13     H     0.42603  0.42603  0.00000  0.14794
      14     H     0.43327  0.43327  0.00000  0.13347
      15     N     3.69399  3.69399  0.00000 -0.38798
      16     H     0.42886  0.42886  0.00000  0.14228
      17     H     0.43786  0.43786  0.00000  0.12427
      18     H     0.43321  0.43321  0.00000  0.13358
      19     H     0.43092  0.43092  0.00000  0.13815
      20     H     0.42927  0.42927  0.00000  0.14147
      21     H     0.41520  0.41520  0.00000  0.16961
      22     C     3.13348  3.13348  0.00000 -0.26695
      23     H     0.43392  0.43392  0.00000  0.13217
      24     H     0.44538  0.44538  0.00000  0.10923
      25     H     0.43072  0.43072  0.00000  0.13857
      26     H     0.39359  0.39359  0.00000  0.21282
      27     H     0.43221  0.43221  0.00000  0.13559

   Total alpha = 48.00000, Total beta = 48.00000, Total charge = -0.00000

  Basis Set: MINIX
    Blend: MINIX
*** Psi4 exiting successfully. Buy a developer a beer!
