                               Psi4 1.6 release

  ==> Input File <==

--------------------------------------------------------------------------
molecule {
0 1
C 2.296014985008 0.249828033104 0.498304662735
N 1.095676911636 -0.29516896565 0.89301861312
C -0.103981757687 -0.097134991782 0.157468980502
C -0.088652939268 -0.060822875671 -1.24368966876
C 1.02364825626 -0.968027906624 2.183086294109
C -1.322384901342 0.012555024424 0.839178058435
C -2.510268253188 0.169747445889 0.12757379881
C -2.497645186224 0.218399338615 -1.264688390972
C -1.282354394992 0.107960268267 -1.940314135934
H -1.351746096459 -0.004237384765 1.923849654708
H 0.849410213948 -0.144729949855 -1.776125983795
O 2.500804163878 0.912910325717 -0.511229275929
H 2.032201975218 -1.249772873101 2.489820180483
H 0.419640770094 -1.872920670756 2.090425067777
H 0.593914673663 -0.329937018813 2.961727219231
H -3.448350424797 0.255537991786 0.670025156172
H -1.259217486776 0.137897407082 -3.02662490958
H -3.42437192343 0.344697880346 -1.817755446382
H 3.10134208868 0.012006958794 1.216534294184
no_reorient
}
memory 20GB
set_num_threads(5)
psi4_io.set_default_path("/scratch/liuchw/Psi4-3_24_Index_0-farH_in17")
set freeze_core True
set PROPERTIES_ORIGIN ["COM"]
set cubeprop_tasks ['esp']
set basis 6-311G**
E, wfn = properties('mp2',properties=['dipole'],return_wfn=True)
cubeprop(wfn)
fchk(wfn, "3_24_Index_0-dma.fchk")
clean()
--------------------------------------------------------------------------

    Molecular point group: c1
  Charge       = 0
  Multiplicity = 1
  Basis Set: 6-311G**
    Blend: 6-311G**
  Basis Set: (6-311G** AUX)
    Blend: CC-PVTZ-JKFIT

    Orbital Energies [Eh]
    ---------------------

    Doubly Occupied:

       1A    -20.525306     2A    -15.606451     3A    -11.358452
       4A    -11.285397     5A    -11.282761     6A    -11.239712
       7A    -11.238094     8A    -11.236209     9A    -11.232127
      10A    -11.230386    11A     -1.382612    12A     -1.271585
      13A     -1.146215    14A     -1.022307    15A     -1.018944
      16A     -0.964364    17A     -0.875088    18A     -0.830874
      19A     -0.781584    20A     -0.701314    21A     -0.699254
      22A     -0.666551    23A     -0.653154    24A     -0.626808
      25A     -0.612195    26A     -0.589655    27A     -0.587432
      28A     -0.569380    29A     -0.545765    30A     -0.516094
      31A     -0.505871    32A     -0.498451    33A     -0.431300
      34A     -0.416293    35A     -0.338173    36A     -0.312874

  @DF-RHF Final Energy:  -437.59526596070964

   => Energetics <=

    Nuclear Repulsion Energy =            495.8989758164457271
    One-Electron Energy =               -1577.3904227514126433
    Two-Electron Energy =                 643.8961809742572768
    Total Energy =                       -437.5952659607096393
  Basis Set: (6-311G** AUX)
    Blend: CC-PVTZ-RI
    Molecular point group: c1

    Geometry (in Angstrom), charge = 0, multiplicity = 1:

       Center              X                  Y                   Z               Mass
    ------------   -----------------  -----------------  -----------------  -----------------
         C            2.303353005440     0.226247897820     0.488088546595    12.000000000000
         N            1.103014932068    -0.318749100934     0.882802496980    14.003074004430
         C           -0.096643737255    -0.120715127066     0.147252864362    12.000000000000
         C           -0.081314918836    -0.084403010955    -1.253905784900    12.000000000000
         C            1.030986276692    -0.991608041908     2.172870177969    12.000000000000
         C           -1.315046880910    -0.011025110860     0.828961942295    12.000000000000
         C           -2.502930232756     0.146167310605     0.117357682670    12.000000000000
         C           -2.490307165792     0.194819203331    -1.274904507112    12.000000000000
         C           -1.275016374560     0.084380132983    -1.950530252074    12.000000000000
         H           -1.344408076027    -0.027817520049     1.913633538568     1.007825032230
         H            0.856748234380    -0.168310085139    -1.786342099935     1.007825032230
         O            2.508142184310     0.889330190433    -0.521445392069    15.994914619570
         H            2.039539995650    -1.273353008385     2.479604064343     1.007825032230
         H            0.426978790526    -1.896500806040     2.080208951637     1.007825032230
         H            0.601252694095    -0.353517154097     2.951511103091     1.007825032230
         H           -3.441012404365     0.231957856502     0.659809040032     1.007825032230
         H           -1.251879466344     0.114317271798    -3.036841025720     1.007825032230
         H           -3.417033902998     0.321117745062    -1.827971562522     1.007825032230
         H            3.108680109112    -0.011573176490     1.206318178044     1.007825032230

  Basis Set: 6-311G**
    Blend: 6-311G**
  Basis Set: (6-311G** AUX)
    Blend: CC-PVTZ-JKFIT
	 Reference Energy          =    -437.5952659607096393 [Eh]
	 Singles Energy            =      -0.0000000000000000 [Eh]
	 Same-Spin Energy          =      -0.3902281177027448 [Eh]
	 Opposite-Spin Energy      =      -1.0914732689679441 [Eh]
	 Correlation Energy        =      -1.4817013866706890 [Eh]
	 Total Energy              =    -439.0769673473803323 [Eh]

	 ================> DF-SCS-MP2 Energies <==================
	-----------------------------------------------------------
	 SCS Same-Spin Scale       =       0.3333333333333333 [-]
	 SCS Opposite-Spin Scale   =       1.2000000000000000 [-]
	 SCS Same-Spin Energy      =      -0.1300760392342483 [Eh]
	 SCS Opposite-Spin Energy  =      -1.3097679227615329 [Eh]
	 SCS Correlation Energy    =      -1.4398439619957810 [Eh]
	 SCS Total Energy          =    -439.0351099227054306 [Eh]
	-----------------------------------------------------------

 Dipole X            :          1.7603277           -2.2608914           -0.5005636
 Dipole Y            :          2.1130560           -2.8669064           -0.7538505
 Dipole Z            :         -3.3157083            4.3447233            1.0290150
 Magnitude           :                                                    1.3703015
  Basis Set: 6-311G**
    Blend: 6-311G**
*** Psi4 exiting successfully. Buy a developer a beer!
