                               Psi4 1.6 release

  ==> Input File <==

--------------------------------------------------------------------------
molecule {
0 1
 H   -1.681300   -0.100100   -2.921100
 N   -1.869500   -0.604800   -2.056000
 C   -3.132000   -0.308900   -1.556000
 C   -4.064500   -1.440900   -1.761700
 C   -0.690300   -0.693300   -1.276900
 C   -3.569300    0.849600   -1.009400
 C   -4.889100    1.211400   -0.436900
 N   -3.522500    3.048500   -0.304000
 C   -2.710400    2.097600   -0.897300
 C   -4.787200    2.548300   -0.037000
 C   -4.118300   -2.500300   -0.845900
 C   -4.891400   -1.471400   -2.894900
 C   -5.004600   -3.560200   -1.046900
 C   -5.776500   -2.532600   -3.092600
 C   -5.835000   -3.573300   -2.166800
 C   -0.699000   -0.876100    0.106100
 C    0.545700   -0.746700   -1.926200
 C    0.496400   -1.040200    0.823600
 C    1.741100   -0.912600   -1.209900
 C    1.746200   -1.050800    0.182500
 H   -3.205200    3.987900   -0.120200
 O   -1.565700    2.293500   -1.257500
 H   -3.471500   -2.506000    0.026600
 H   -4.853100   -0.667500   -3.625700
 H   -5.048000   -4.376200   -0.330300
 H   -6.421300   -2.548000   -3.967600
 H   -6.527600   -4.397500   -2.319600
 H   -1.635600   -0.881500    0.655300
 H    0.596700   -0.665300   -3.009300
 H    0.405700   -1.131600    1.901500
 H    2.653700   -0.969700   -1.794500
 H   -5.716000    0.600000   -0.350900
 H   -5.550900    3.089100    0.398200
 H    2.625400   -1.155400    0.712700
}
set {
  geom_maxiter 400
  g_convergence GAU_LOOSE
  dynamic_level 1
}
geometric_keywords = {
 'coordsys' : 'tric',
 'convergence_cmax' : 1e0,
 'convergence_set' : 'GAU_LOOSE',
 'convergence_energy' : 1e-4,
 'constraints' : {
 'set' : [
       {'type'    : 'dihedral', 'indices' : [ 0 , 1 , 2 , 3 ], 'value' : 106.3846 }
     , {'type'    : 'dihedral', 'indices' : [ 4 , 1 , 2 , 3 ], 'value' : 243.0046 }
     , {'type'    : 'dihedral', 'indices' : [ 0 , 1 , 4 , 15 ], 'value' : 156.2896 }
     , {'type'    : 'dihedral', 'indices' : [ 2 , 1 , 4 , 15 ], 'value' : 19.1551 }
     , {'type'    : 'dihedral', 'indices' : [ 1 , 2 , 3 , 10 ], 'value' : 84.6599 }
    ]
  }
}
set optking {
  frozen_dihedral = ("
   1 2 3 4
   5 2 3 4
   1 2 5 16
   3 2 5 16
   2 3 4 11
  ")
}
memory 20GB
set_num_threads(5)
psi4_io.set_default_path("/scratch/liuchw/Psi4-1_7_Index_0-farH_in17")
basis {
assign 6-31G*
}
opt_finished = False
if not opt_finished:
    try:
        ener, opt_hist = optimize('mp2',engine='geometric',optimizer_keywords=geometric_keywords, return_history=True)
        opt_finished = len(opt_hist['energy']) < 400
    except Exception as e:
        core.print_out('Exception: %s'%(e))
if not opt_finished:
    try:
        optimize('mp2')
    except:
        set opt_coordinates both
        optimize('mp2')
    opt_finished = True
clean()
assert opt_finished

--------------------------------------------------------------------------

    Molecular point group: c1
  Charge       = 0
  Multiplicity = 1
  Basis Set: ANONYMOUSEF52D16A
    Blend: 6-31G*
  Basis Set: (ANONYMOUSEF52D16A AUX)
    Blend: CC-PVDZ-JKFIT
  @DF-RHF Final Energy:  -835.62668725319236
    Total Energy =                       -835.6266872531923582
 Dipole X            :         -0.3534204           -1.0916015           -1.4450218
 Dipole Y            :          5.9691732           -5.5316782            0.4374950
 Dipole Z            :         -0.7449767            1.0271054            0.2821288
 Magnitude           :                                                    1.5359319
  Basis Set: (ANONYMOUSEF52D16A AUX)
    Blend: CC-PVDZ-RI
    Molecular point group: c1
  Basis Set: ANONYMOUSEF52D16A
    Blend: 6-31G*
  Basis Set: (ANONYMOUSEF52D16A AUX)
    Blend: CC-PVDZ-JKFIT
  Basis Set: (ANONYMOUSEF52D16A AUX)
    Blend: CC-PVDZ-JKFIT
	 Reference Energy          =    -835.6266872531923582 [Eh]
	 Singles Energy            =      -0.0000000000000000 [Eh]
	 Same-Spin Energy          =      -0.7441729413040615 [Eh]
	 Opposite-Spin Energy      =      -2.0016950046174937 [Eh]
	 Correlation Energy        =      -2.7458679459215554 [Eh]
	 Total Energy              =    -838.3725551991138900 [Eh]
	 SCS Total Energy          =    -838.2767789058347034 [Eh]
  @DF-RHF Final Energy:  -835.63477212273779
    Total Energy =                       -835.6347721227377860
  @DF-RHF Final Energy:  -835.63703073365457
    Total Energy =                       -835.6370307336546830
  @DF-RHF Final Energy:  -835.63557298893511
    Total Energy =                       -835.6355729889351096
  @DF-RHF Final Energy:  -835.63637080557987
    Total Energy =                       -835.6363708055798725
  @DF-RHF Final Energy:  -835.63797672888882
    Total Energy =                       -835.6379767288888161
  @DF-RHF Final Energy:  -835.63766830114173
    Total Energy =                       -835.6376683011417299
  @DF-RHF Final Energy:  -835.63795522401358
    Total Energy =                       -835.6379552240134672
  @DF-RHF Final Energy:  -835.63810136899531
    Total Energy =                       -835.6381013689954216
  @DF-RHF Final Energy:  -835.63808883755962
    Total Energy =                       -835.6380888375597351
  @DF-RHF Final Energy:  -835.63803690240309
    Total Energy =                       -835.6380369024032007
  @DF-RHF Final Energy:  -835.63804138289868
    Total Energy =                       -835.6380413828987912
  @DF-RHF Final Energy:  -835.63812181560058
    Total Energy =                       -835.6381218156006980
  @DF-RHF Final Energy:  -835.63812343040559
    Total Energy =                       -835.6381234304055852
  Charge       = 0
  Multiplicity = 1
  Basis Set: ANONYMOUSEF52D16A
    Blend: 6-31G*
  Basis Set: (ANONYMOUSEF52D16A AUX)
    Blend: CC-PVDZ-JKFIT

    Orbital Energies [Eh]
    ---------------------

    Doubly Occupied:

       1A    -20.534747     2A    -15.606035     3A    -15.568381
       4A    -11.360793     5A    -11.298743     6A    -11.294767
       7A    -11.268782     8A    -11.251721     9A    -11.249550
      10A    -11.242926    11A    -11.242067    12A    -11.241562
      13A    -11.240882    14A    -11.239994    15A    -11.233162
      16A    -11.225229    17A    -11.224357    18A    -11.213311
      19A    -11.212992    20A    -11.209863    21A     -1.378697
      22A     -1.274077    23A     -1.248144    24A     -1.157967
      25A     -1.123530    26A     -1.084812    27A     -1.035005
      28A     -1.017081    29A     -0.998227    30A     -0.991222
      31A     -0.968890    32A     -0.899064    33A     -0.830793
      34A     -0.824279    35A     -0.815511    36A     -0.807047
      37A     -0.796271    38A     -0.743629    39A     -0.712337
      40A     -0.697753    41A     -0.691925    42A     -0.663731
      43A     -0.646385    44A     -0.639952    45A     -0.627082
      46A     -0.607507    47A     -0.605780    48A     -0.598642
      49A     -0.596181    50A     -0.591120    51A     -0.588777
      52A     -0.583650    53A     -0.568092    54A     -0.564029
      55A     -0.512367    56A     -0.503032    57A     -0.501846
      58A     -0.497795    59A     -0.490764    60A     -0.476354
      61A     -0.469320    62A     -0.435343    63A     -0.410307
      64A     -0.409624    65A     -0.338108    66A     -0.335763
      67A     -0.320624    68A     -0.297143    69A     -0.278309

  @DF-RHF Final Energy:  -835.63806004779087

   => Energetics <=

    Nuclear Repulsion Energy =           1428.6742459105676062
    One-Electron Energy =               -3974.1971095524822886
    Two-Electron Energy =                1709.8848035941236958
    Total Energy =                       -835.6380600477909866
 Dipole X            :         -2.8964964            1.3203599           -1.5761365
 Dipole Y            :         10.4630229          -10.0842893            0.3787336
 Dipole Z            :          5.6987902           -5.3208040            0.3779862
 Magnitude           :                                                    1.6644876
  Basis Set: (ANONYMOUSEF52D16A AUX)
    Blend: CC-PVDZ-RI
    Molecular point group: c1
  Basis Set: ANONYMOUSEF52D16A
    Blend: 6-31G*
  Basis Set: (ANONYMOUSEF52D16A AUX)
    Blend: CC-PVDZ-JKFIT
  Basis Set: (ANONYMOUSEF52D16A AUX)
    Blend: CC-PVDZ-JKFIT
	 Reference Energy          =    -835.6380600477908729 [Eh]
	 Singles Energy            =      -0.0000000000000000 [Eh]
	 Same-Spin Energy          =      -0.7459467494929689 [Eh]
	 Opposite-Spin Energy      =      -2.0043870840346116 [Eh]
	 Correlation Energy        =      -2.7503338335275807 [Eh]
	 Total Energy              =    -838.3883938813185068 [Eh]

	 ================> DF-SCS-MP2 Energies <==================
	-----------------------------------------------------------
	 SCS Same-Spin Scale       =       0.3333333333333333 [-]
	 SCS Opposite-Spin Scale   =       1.2000000000000000 [-]
	 SCS Same-Spin Energy      =      -0.2486489164976563 [Eh]
	 SCS Opposite-Spin Energy  =      -2.4052645008415339 [Eh]
	 SCS Correlation Energy    =      -2.6539134173391901 [Eh]
	 SCS Total Energy          =    -838.2919734651300132 [Eh]
	-----------------------------------------------------------

  -Total Gradient:
     Atom            X                  Y                   Z
    ------   -----------------  -----------------  -----------------
       1        0.000355560723    -0.002397718890    -0.001446776902
       2       -0.001417992079     0.006325791343    -0.001363356191
       3        0.000872928098    -0.003650581556     0.006597753175
       4        0.002093544809    -0.001171111202    -0.005081400418
       5        0.000294786102    -0.001354156008    -0.000456504658
       6       -0.000095364793     0.000057708908    -0.000019149739
       7       -0.000008551844     0.000232476083    -0.000032809086
       8       -0.000158692452    -0.000059242116    -0.000210599488
       9        0.000119666227    -0.000078337544     0.000202739157
      10       -0.000000365361    -0.000105301521     0.000122904784
      11       -0.001922898724     0.001480493876     0.001700651452
      12       -0.000054860152     0.000076543268     0.000038438375
      13        0.000017341703    -0.000014706881    -0.000030766234
      14        0.000030882354    -0.000013489526    -0.000037652377
      15       -0.000024588751     0.000022906034     0.000038008647
      16       -0.000140719969     0.000710622331     0.000088753785
      17        0.000030780364     0.000053344686    -0.000078353331
      18        0.000007707179    -0.000018265827    -0.000001445551
      19       -0.000033397628    -0.000024339279     0.000023222976
      20       -0.000006718383     0.000021435866    -0.000000925012
      21        0.000025110764    -0.000027726699     0.000037424132
      22        0.000052413344    -0.000088187583    -0.000079105952
      23        0.000016042325    -0.000005336368     0.000001702409
      24        0.000010107198    -0.000007289479    -0.000002996327
      25       -0.000009546602     0.000011406442     0.000008145108
      26       -0.000007327435     0.000010897573     0.000007322110
      27        0.000009136521    -0.000004787399    -0.000011410209
      28       -0.000038582187     0.000002242124    -0.000008184281
      29        0.000000490174    -0.000006796061    -0.000007258998
      30        0.000000554816     0.000008642663     0.000000231078
      31       -0.000005565812     0.000009823461     0.000000099986
      32       -0.000002558693     0.000011062505    -0.000001228194
      33       -0.000009228263     0.000004959162    -0.000001175945
      34       -0.000000093570    -0.000012982392     0.000003701717

    Molecular point group: c1

    Geometry (in Angstrom), charge = 0, multiplicity = 1:

    H            0.997937242707     0.308778154082    -1.903576961728
    N            0.820413169686    -0.224545975516    -1.054765582114
    C           -0.475924549372    -0.008757716274    -0.504109051449
    C           -1.456610733187    -1.106308761900    -0.669422911109
    C            1.938857213551    -0.263197556109    -0.202879040229
    C           -0.839314087011     1.175919993376     0.052533901309
    C           -2.087963242726     1.532578341518     0.693808718102
    N           -0.715600857708     3.331908933802     0.777588311039
    C            0.038111763721     2.396548668913     0.080861658512
    C           -1.965812402132     2.815126659906     1.118257558417
    C           -1.497917237857    -2.179116479176     0.230451969775
    C           -2.389801291285    -1.046597704267    -1.712236647812
    C           -2.442613902794    -3.191458448571     0.070429386975
    C           -3.329502735927    -2.064084872299    -1.872877725036
    C           -3.360436663532    -3.135392962779    -0.979618611652
    C            1.814645349464    -0.490487920548     1.173683863841
    C            3.219989851801    -0.152930980768    -0.759443180540
    C            2.953706600161    -0.594745981176     1.970698133935
    C            4.350029922874    -0.253767275177     0.044767090154
    C            4.227223288060    -0.483135142134     1.416033991131
    H           -0.406808159301     4.285900536509     0.910372291022
    O            1.140442443682     2.589355152341    -0.424191471515
    H           -0.774305124760    -2.228923352823     1.040463532002
    H           -2.370729541346    -0.202205199274    -2.398172622837
    H           -2.468189296908    -4.021623225682     0.771989653320
    H           -4.045712467318    -2.014264917538    -2.689364457551
    H           -4.095566810580    -3.926438409158    -1.103328517272
    H            0.830463250674    -0.555985877545     1.628668420404
    H            3.323931371044     0.027137617568    -1.827812029728
    H            2.838198769701    -0.768084895100     3.038249300979
    H            5.334242701214    -0.154860486710    -0.406919091126
    H           -2.937586237334     0.882308167506     0.847749742480
    H           -2.675198080951     3.427203342608     1.661110959571
    H            5.110798163953    -0.562850658801     2.043059612999

*** Psi4 exiting successfully. Buy a developer a beer!
