                               Psi4 1.6 release

  ==> Input File <==

--------------------------------------------------------------------------
molecule {
0 1
C          1.74620       -1.05080        0.18250
N          2.96770       -1.22590        0.93830
C          4.20790       -0.75070        0.46350
C          5.41700       -0.91200        1.42550
C          2.83610       -1.83070        2.26690
O          4.37860       -0.19540       -0.62670
C          0.49640       -1.04020        0.82360
C         -0.69030       -0.69330       -1.27690
C         -0.69900       -0.87610        0.10610
C          0.54570       -0.74670       -1.92620
C          1.74110       -0.91260       -1.20990
H          3.76190       -2.31380        2.58500
H          2.07280       -2.61550        2.26200
H          2.58270       -1.04830        2.98880
N          6.60930       -0.19800        0.91940
H          5.63850       -1.98490        1.46880
H          5.16110       -0.54490        2.42510
H          0.40570       -1.13160        1.90150
H         -1.63560       -0.88150        0.65530
H          0.59670       -0.66530       -3.00930
H          2.65370       -0.96970       -1.79450
C          6.49030        1.26440        0.98430
C          7.86250       -0.64920        1.54090
H          6.57290        1.59800        2.02760
H          5.51790        1.62350        0.63090
H          8.11140       -1.63500        1.12980
H          7.74260       -0.77830        2.62420
H         -1.56360       -0.52500       -1.80050
H          7.27020        1.65250        0.36300
H          8.61940        0.08150        1.34590
}
memory 208GB
set_num_threads(51)
psi4_io.set_default_path("/scratch/liuchw/Psi4-farH_in17")
set maxiter 500
set freeze_core True
set PROPERTIES_ORIGIN ["COM"]
set cubeprop_tasks ['esp']
set basis MINIX
E, wfn = properties('hf',properties=['dipole','WIBERG_LOWDIN_INDICES','MULLIKEN_CHARGES'],return_wfn=True)
cubeprop(wfn)
fchk(wfn, "farH_in17-esp_frag.fchk")
clean()
--------------------------------------------------------------------------

    Molecular point group: c1

    Geometry (in Angstrom), charge = 0, multiplicity = 1:

       Center              X                  Y                   Z               Mass
    ------------   -----------------  -----------------  -----------------  -----------------
         C           -1.520374892561    -0.365538059434    -0.194753791747    12.000000000000
         N           -0.298874892561    -0.540638059434     0.561046208253    14.003074004430
         C            0.941325107439    -0.065438059434     0.086246208253    12.000000000000
         C            2.150425107439    -0.226738059434     1.048246208253    12.000000000000
         C           -0.430474892561    -1.145438059434     1.889646208253    12.000000000000
         O            1.112025107439     0.489861940566    -1.003953791747    15.994914619570
         C           -2.770174892561    -0.354938059434     0.446346208253    12.000000000000
         C           -3.956874892561    -0.008038059434    -1.654153791747    12.000000000000
         C           -3.965574892561    -0.190838059434    -0.271153791747    12.000000000000
         C           -2.720874892561    -0.061438059434    -2.303453791747    12.000000000000
         C           -1.525474892561    -0.227338059434    -1.587153791747    12.000000000000
         H            0.495325107439    -1.628538059434     2.207746208253     1.007825032230
         H           -1.193774892561    -1.930238059434     1.884746208253     1.007825032230
         H           -0.683874892561    -0.363038059434     2.611546208253     1.007825032230
         N            3.342725107439     0.487261940566     0.542146208253    14.003074004430
         H            2.371925107439    -1.299638059434     1.091546208253     1.007825032230
         H            1.894525107439     0.140361940566     2.047846208253     1.007825032230
         H           -2.860874892561    -0.446338059434     1.524246208253     1.007825032230
         H           -4.902174892561    -0.196238059434     0.278046208253     1.007825032230
         H           -2.669874892561     0.019961940566    -3.386553791747     1.007825032230
         H           -0.612874892561    -0.284438059434    -2.171753791747     1.007825032230
         C            3.223725107439     1.949661940566     0.607046208253    12.000000000000
         C            4.595925107439     0.036061940566     1.163646208253    12.000000000000
         H            3.306325107439     2.283261940566     1.650346208253     1.007825032230
         H            2.251325107439     2.308761940566     0.253646208253     1.007825032230
         H            4.844825107439    -0.949738059434     0.752546208253     1.007825032230
         H            4.476025107439    -0.093038059434     2.246946208253     1.007825032230
         H           -4.830174892561     0.160261940566    -2.177753791747     1.007825032230
         H            4.003625107439     2.337761940566    -0.014253791747     1.007825032230
         H            5.352825107439     0.766761940566     0.968646208253     1.007825032230

  Charge       = 0
  Multiplicity = 1
  Basis Set: MINIX
    Blend: MINIX
  Basis Set: (MINIX AUX)
    Blend: DEF2-UNIVERSAL-JKFIT

    Orbital Energies [Eh]
    ---------------------

    Doubly Occupied:

       1A    -20.297766     2A    -15.452030     3A    -15.375823
       4A    -11.317192     5A    -11.234247     6A    -11.217902
       7A    -11.209001     8A    -11.180030     9A    -11.175547
      10A    -11.172271    11A    -11.170274    12A    -11.168343
      13A    -11.167876    14A    -11.163931    15A     -1.371133
      16A     -1.242944    17A     -1.212013    18A     -1.145566
      19A     -1.027106    20A     -1.012959    21A     -0.986520
      22A     -0.950311    23A     -0.948859    24A     -0.851453
      25A     -0.821051    26A     -0.804350    27A     -0.744322
      28A     -0.695203    29A     -0.684269    30A     -0.667741
      31A     -0.653159    32A     -0.634413    33A     -0.632393
      34A     -0.616062    35A     -0.607803    36A     -0.589965
      37A     -0.575618    38A     -0.560013    39A     -0.553016
      40A     -0.550734    41A     -0.535281    42A     -0.534154
      43A     -0.508601    44A     -0.503288    45A     -0.498223
      46A     -0.489467    47A     -0.480879    48A     -0.403211
      49A     -0.388187    50A     -0.341964    51A     -0.332903
      52A     -0.307128

  @DF-RHF Final Energy:  -605.43005051522493

   => Energetics <=

    Nuclear Repulsion Energy =            876.0616220819395039
    One-Electron Energy =               -2561.4544371955475981
    Two-Electron Energy =                1079.9627645983830462
    Total Energy =                       -605.4300505152250480
 Dipole X            :        -10.6403448           10.5365671           -0.1037777
 Dipole Y            :         -1.2915509            0.7767565           -0.5147944
 Dipole Z            :         -7.5328841            9.1487418            1.6158576
 Magnitude           :                                                    1.6990524

  Mulliken Charges: (a.u.)
   Center  Symbol    Alpha    Beta     Spin     Total
       1     C     2.94956  2.94956  0.00000  0.10088
       2     N     3.66045  3.66045  0.00000 -0.32091
       3     C     2.80310  2.80310  0.00000  0.39381
       4     C     3.07383  3.07383  0.00000 -0.14767
       5     C     3.12296  3.12296  0.00000 -0.24593
       6     O     4.20272  4.20272  0.00000 -0.40545
       7     C     3.07709  3.07709  0.00000 -0.15418
       8     C     3.08030  3.08030  0.00000 -0.16060
       9     C     3.06528  3.06528  0.00000 -0.13057
      10     C     3.06394  3.06394  0.00000 -0.12788
      11     C     3.07063  3.07063  0.00000 -0.14126
      12     H     0.42999  0.42999  0.00000  0.14002
      13     H     0.42606  0.42606  0.00000  0.14788
      14     H     0.43311  0.43311  0.00000  0.13379
      15     N     3.65281  3.65281  0.00000 -0.30563
      16     H     0.42934  0.42934  0.00000  0.14131
      17     H     0.43808  0.43808  0.00000  0.12384
      18     H     0.43310  0.43310  0.00000  0.13379
      19     H     0.43086  0.43086  0.00000  0.13828
      20     H     0.42927  0.42927  0.00000  0.14146
      21     H     0.41528  0.41528  0.00000  0.16944
      22     C     3.12939  3.12939  0.00000 -0.25879
      23     C     3.12945  3.12945  0.00000 -0.25891
      24     H     0.44728  0.44728  0.00000  0.10544
      25     H     0.42939  0.42939  0.00000  0.14123
      26     H     0.43521  0.43521  0.00000  0.12957
      27     H     0.44487  0.44487  0.00000  0.11025
      28     H     0.43068  0.43068  0.00000  0.13865
      29     H     0.43309  0.43309  0.00000  0.13382
      30     H     0.43286  0.43286  0.00000  0.13428

   Total alpha = 52.00000, Total beta = 52.00000, Total charge =  0.00000

  Basis Set: MINIX
    Blend: MINIX
*** Psi4 exiting successfully. Buy a developer a beer!
