                               Psi4 1.6 release

  ==> Input File <==

--------------------------------------------------------------------------
molecule {
0 1
 N   -1.639584   -0.389519    0.328597
 C   -0.392228   -0.418537   -0.201215
 C    0.739813   -0.492377    0.817618
 N    1.593103    0.679558    0.654574
 O   -0.190874   -0.476090   -1.392671
 H    1.264350   -1.445274    0.644842
 H    0.347181   -0.495119    1.839035
 H   -2.405936   -0.262366   -0.315549
 H   -1.785310   -0.075932    1.272480
 H    2.520853    0.494782    1.022473
 H    1.704034    0.862576   -0.339806
}
memory 20GB
set_num_threads(5)
psi4_io.set_default_path("/scratch/liuchw/Psi4-25_27_Index_0-farH_in17")
set freeze_core True
E, wfn = energy('wb97x-d/6-311+G*',return_wfn=True)
oeprop(wfn,"WIBERG_LOWDIN_INDICES")
clean()
--------------------------------------------------------------------------

    Molecular point group: c1

    Geometry (in Angstrom), charge = 0, multiplicity = 1:

       Center              X                  Y                   Z               Mass
    ------------   -----------------  -----------------  -----------------  -----------------
         N           -1.668283964078    -0.181369028203     0.287483947230    14.003074004430
         C           -0.420927964078    -0.210387028203    -0.242328052770    12.000000000000
         C            0.711113035922    -0.284227028203     0.776504947230    12.000000000000
         N            1.564403035922     0.887707971797     0.613460947230    14.003074004430
         O           -0.219573964078    -0.267940028203    -1.433784052770    15.994914619570
         H            1.235650035922    -1.237124028203     0.603728947230     1.007825032230
         H            0.318481035922    -0.286969028203     1.797921947230     1.007825032230
         H           -2.434635964078    -0.054216028203    -0.356662052770     1.007825032230
         H           -1.814009964078     0.132217971797     1.231366947230     1.007825032230
         H            2.492153035922     0.702931971797     0.981359947230     1.007825032230
         H            1.675334035922     1.070725971797    -0.380919052770     1.007825032230

  Charge       = 0
  Multiplicity = 1
  Basis Set: 6-311+G*
    Blend: 6-311+G*
  Basis Set: (6-311+G* AUX)
    Blend: HEAVY-AUG-CC-PVTZ-JKFIT

    Orbital Energies [Eh]
    ---------------------

    Doubly Occupied:

       1A    -19.220967     2A    -14.463245     3A    -14.420049
       4A    -10.396648     5A    -10.322852     6A     -1.157257
       7A     -1.022801     8A     -0.994418     9A     -0.806180
      10A     -0.688502    11A     -0.642570    12A     -0.608029
      13A     -0.570643    14A     -0.534557    15A     -0.498198
      16A     -0.488770    17A     -0.484898    18A     -0.371640
      19A     -0.350773    20A     -0.333592

  @DF-RKS Final Energy:  -264.54531504800082

   => Energetics <=

    Nuclear Repulsion Energy =            180.4710320832542436
    One-Electron Energy =                -716.6029489263129335
    Two-Electron Energy =                 296.1504960924096963
    DFT Exchange-Correlation Energy =     -24.5602404627507447
    Empirical Dispersion Energy =          -0.0036538346010588
    VV10 Nonlocal Energy =                  0.0000000000000000
    Total Energy =                       -264.5453150480007594
 Dipole X            :         -1.6726495            1.3801132           -0.2925364
 Dipole Y            :         -0.4382843            0.3037449           -0.1345394
 Dipole Z            :         -2.5336990            3.6248724            1.0911734
 Magnitude           :                                                    1.1376897
*** Psi4 exiting successfully. Buy a developer a beer!
