                               Psi4 1.6 release

  ==> Input File <==

--------------------------------------------------------------------------
molecule {
0 1
 N   -1.069995   -0.836287   -0.281184
 C   -0.692592    0.354165    0.263233
 C    0.613656    0.285247    1.048060
 N    1.715208   -0.143195    0.193492
 O   -1.296721    1.376852    0.054784
 H    0.452108   -0.369725    1.922111
 H    0.835666    1.293977    1.405920
 H   -1.965460   -0.860889   -0.743702
 H   -0.738213   -1.706439    0.099014
 H    2.477217   -0.494597    0.765183
 H    1.424527   -0.917409   -0.396532
}
memory 20GB
set_num_threads(5)
psi4_io.set_default_path("/scratch/liuchw/Psi4-25_27_Index_0-farH_in17")
set freeze_core True
E, wfn = energy('wb97x-d/6-311+G*',return_wfn=True)
oeprop(wfn,"WIBERG_LOWDIN_INDICES")
clean()
--------------------------------------------------------------------------

    Molecular point group: c1

    Geometry (in Angstrom), charge = 0, multiplicity = 1:

       Center              X                  Y                   Z               Mass
    ------------   -----------------  -----------------  -----------------  -----------------
         N           -0.932949978955    -1.010509462495    -0.530477655358    14.003074004430
         C           -0.555546978955     0.179942537505     0.013939344642    12.000000000000
         C            0.750701021045     0.111024537505     0.798766344642    12.000000000000
         N            1.852253021045    -0.317417462495    -0.055801655358    14.003074004430
         O           -1.159675978955     1.202629537505    -0.194509655358    15.994914619570
         H            0.589153021045    -0.543947462495     1.672817344642     1.007825032230
         H            0.972711021045     1.119754537505     1.156626344642     1.007825032230
         H           -1.828414978955    -1.035111462495    -0.992995655358     1.007825032230
         H           -0.601167978955    -1.880661462495    -0.150279655358     1.007825032230
         H            2.614262021045    -0.668819462495     0.515889344642     1.007825032230
         H            1.561572021045    -1.091631462495    -0.645825655358     1.007825032230

  Charge       = 0
  Multiplicity = 1
  Basis Set: 6-311+G*
    Blend: 6-311+G*
  Basis Set: (6-311+G* AUX)
    Blend: HEAVY-AUG-CC-PVTZ-JKFIT

    Orbital Energies [Eh]
    ---------------------

    Doubly Occupied:

       1A    -19.220323     2A    -14.463387     3A    -14.427676
       4A    -10.396334     5A    -10.322891     6A     -1.156371
       7A     -1.028104     8A     -0.996200     9A     -0.807723
      10A     -0.694945    11A     -0.649554    12A     -0.592878
      13A     -0.564732    14A     -0.555527    15A     -0.502102
      16A     -0.487932    17A     -0.483689    18A     -0.372258
      19A     -0.350156    20A     -0.335547

  @DF-RKS Final Energy:  -264.54038211096929

   => Energetics <=

    Nuclear Repulsion Energy =            180.6958199558719969
    One-Electron Energy =                -716.9782633149040976
    Two-Electron Energy =                 296.3064957428406387
    DFT Exchange-Correlation Energy =     -24.5605126389383983
    Empirical Dispersion Energy =          -0.0039218558394650
    VV10 Nonlocal Energy =                  0.0000000000000000
    Total Energy =                       -264.5403821109692899
 Dipole X            :         -2.8334836            3.0930146            0.2595310
 Dipole Y            :          1.9275746           -3.8343800           -1.9068054
 Dipole Z            :         -0.8975080            1.4596883            0.5621803
 Magnitude           :                                                    2.0048217
*** Psi4 exiting successfully. Buy a developer a beer!
