                               Psi4 1.6 release

  ==> Input File <==

--------------------------------------------------------------------------
molecule {
0 1
 N   -1.372556   -0.871076   -0.014941
 C   -0.561977    0.222837    0.056470
 C    0.617487    0.062679    1.012737
 N    1.864263    0.215066    0.273354
 O   -0.725942    1.184567   -0.651766
 H    0.533881   -0.898293    1.546232
 H    0.566210    0.877657    1.743369
 H   -2.206328   -0.778173   -0.575716
 H   -1.408825   -1.541843    0.733220
 H    2.631394   -0.185186    0.804260
 H    1.817793   -0.306534   -0.596837
}
memory 20GB
set_num_threads(5)
psi4_io.set_default_path("/scratch/liuchw/Psi4-25_27_Index_0-farH_in17")
set freeze_core True
E, wfn = energy('wb97x-d/6-311+G*',return_wfn=True)
oeprop(wfn,"WIBERG_LOWDIN_INDICES")
clean()
--------------------------------------------------------------------------

    Molecular point group: c1

    Geometry (in Angstrom), charge = 0, multiplicity = 1:

       Center              X                  Y                   Z               Mass
    ------------   -----------------  -----------------  -----------------  -----------------
         N           -1.344052990556    -1.010614492021    -0.146034911507    14.003074004430
         C           -0.533473990556     0.083298507979    -0.074623911507    12.000000000000
         C            0.645990009444    -0.076859492021     0.881643088493    12.000000000000
         N            1.892766009444     0.075527507979     0.142260088493    14.003074004430
         O           -0.697438990556     1.045028507979    -0.782859911507    15.994914619570
         H            0.562384009444    -1.037831492021     1.415138088493     1.007825032230
         H            0.594713009444     0.738118507979     1.612275088493     1.007825032230
         H           -2.177824990556    -0.917711492021    -0.706809911507     1.007825032230
         H           -1.380321990556    -1.681381492021     0.602126088493     1.007825032230
         H            2.659897009444    -0.324724492021     0.673166088493     1.007825032230
         H            1.846296009444    -0.446072492021    -0.727930911507     1.007825032230

  Charge       = 0
  Multiplicity = 1
  Basis Set: 6-311+G*
    Blend: 6-311+G*
  Basis Set: (6-311+G* AUX)
    Blend: HEAVY-AUG-CC-PVTZ-JKFIT

    Orbital Energies [Eh]
    ---------------------

    Doubly Occupied:

       1A    -19.217099     2A    -14.462336     3A    -14.421164
       4A    -10.394567     5A    -10.324306     6A     -1.154633
       7A     -1.020761     8A     -0.995418     9A     -0.806968
      10A     -0.690309    11A     -0.641379    12A     -0.603941
      13A     -0.559056    14A     -0.539634    15A     -0.514057
      16A     -0.491843    17A     -0.470319    18A     -0.369007
      19A     -0.345146    20A     -0.332641

  @DF-RKS Final Energy:  -264.53895981743216

   => Energetics <=

    Nuclear Repulsion Energy =            180.2399670125477655
    One-Electron Energy =                -716.1733344074042407
    Two-Electron Energy =                 295.9560746813878609
    DFT Exchange-Correlation Energy =     -24.5579914701203563
    Empirical Dispersion Energy =          -0.0036756338430738
    VV10 Nonlocal Energy =                  0.0000000000000000
    Total Energy =                       -264.5389598174321577
 Dipole X            :         -2.2045664            1.9685624           -0.2360040
 Dipole Y            :          1.6832978           -3.4324034           -1.7491056
 Dipole Z            :         -1.7333256            2.6848785            0.9515530
 Magnitude           :                                                    2.0051238
*** Psi4 exiting successfully. Buy a developer a beer!
