   * xtb version 6.5.0 (97a52f5) compiled by 'conda@d2599ee0d4f4' on 2022-05-15
          program call               : /home/liuchw/anaconda3/envs/xtbenv/bin/xtb --gfn 2 --chrg 0 --uhf 0 25_27_Index_0-opt-2-3-150_preQMOPTprefit_xyzformat.xyz --opt --input xtb-opt-2-3-150_constr.txt

   ID    Z sym.   atoms
    1    7 N      1, 4
    2    6 C      2, 3
    3    8 O      5
    4    1 H      6-11
constraining angle 1 2 3 4 to  150.0299008°, actual value:  150.0299008°
constraining angle 8 1 2 3 to  175.0118690°, actual value:  175.0118690°
constraining angle 8 1 2 5 to  350.0274859°, actual value:   -9.9725141°
constraining angle 9 1 2 5 to  197.9891920°, actual value: -162.0108080°
constraining angle 9 1 2 3 to   22.9735750°, actual value:   22.9735750°
constraining angle 6 3 4 11 to   78.3301028°, actual value:   78.3301028°
constraining angle 7 3 4 11 to  198.8041115°, actual value: -161.1958885°
constraining angle 6 3 4 10 to  321.7306795°, actual value:  -38.2693205°
constraining angle 7 3 4 10 to   82.2046882°, actual value:   82.2046882°

          :  Hamiltonian                  GFN2-xTB          :
 * total energy  :   -17.2256920 Eh     change       -0.3193179E-10 Eh
 * total energy  :   -17.2284751 Eh     change       -0.2783156E-02 Eh
 * total energy  :   -17.2284961 Eh     change       -0.2099141E-04 Eh
 * total energy  :   -17.2286113 Eh     change       -0.1151528E-03 Eh
 * total energy  :   -17.2286144 Eh     change       -0.3078884E-05 Eh
 * total energy  :   -17.2286902 Eh     change       -0.7587459E-04 Eh
 * total energy  :   -17.2286994 Eh     change       -0.9164313E-05 Eh
 * total energy  :   -17.2287007 Eh     change       -0.1290610E-05 Eh
 * total energy  :   -17.2287009 Eh     change       -0.2265365E-06 Eh
   *** GEOMETRY OPTIMIZATION CONVERGED AFTER 9 ITERATIONS ***

 final structure:
================
11
 xtb: 6.5.0 (97a52f5)
N           -1.50744225916889       -0.80927031110197        0.11988920759277
C           -0.50573278613371        0.10106300572302       -0.04654288154152
C            0.63876793638158       -0.06395931914933        0.94974517342632
N            1.89189947081841        0.37339452095009        0.35834254916658
O           -0.50246606605505        0.88830079768084       -0.95955709787623
H            0.64789415857799       -1.11578380234226        1.28325444102720
H            0.43033748219756        0.57250875011246        1.81804522448606
H           -2.32262016069092       -0.69413611339911       -0.46315494523628
H           -1.64690155271641       -1.26930131963656        1.00297229155019
H            2.67413602661563       -0.03196919042302        0.86251313579958
H            1.95752776017381        0.03085298158574       -0.59512808839471

          :  Hamiltonian                  GFN2-xTB          :
         :: total energy             -17.228700920749 Eh    ::
         :: gradient norm              0.000923801729 Eh/a0 ::
         :: HOMO-LUMO gap              4.249058375878 eV    ::
         :: SCC energy               -17.418790401008 Eh    ::
         :: -> dispersion             -0.005135297360 Eh    ::
         :: repulsion energy           0.190080992962 Eh    ::

    * Orbital Energies and Occupations

         #    Occupation            Energy/Eh            Energy/eV
      -------------------------------------------------------------
         1        2.0000           -0.7028859             -19.1265
       ...           ...                  ...                  ...
         3        2.0000           -0.6449054             -17.5488
         4        2.0000           -0.6044300             -16.4474
         5        2.0000           -0.5865756             -15.9615
         6        2.0000           -0.5624941             -15.3062
         7        2.0000           -0.5522838             -15.0284
         8        2.0000           -0.5440567             -14.8045
         9        2.0000           -0.5103796             -13.8881
        10        2.0000           -0.5058275             -13.7643
        11        2.0000           -0.4892101             -13.3121
        12        2.0000           -0.4692104             -12.7679
        13        2.0000           -0.4269122             -11.6169
        14        2.0000           -0.3984906             -10.8435
        15        2.0000           -0.3708659             -10.0918 (HOMO)
        16                         -0.2147159              -5.8427 (LUMO)
        17                          0.0045872               0.1248
        18                          0.0616486               1.6775
        19                          0.0921383               2.5072
        20                          0.1291877               3.5154
        21                          0.1567294               4.2648
        22                          0.2000288               5.4431
        23                          0.2064456               5.6177
        24                          0.2407678               6.5516
        25                          0.3425565               9.3214
        26                          0.6518380              17.7374
      -------------------------------------------------------------
                  HL-Gap            0.1561500 Eh            4.2491 eV

     #   Z          covCN         q      C6AA      α(0)
     1   7 N        2.638    -0.284    27.322     7.763
     2   6 C        2.743     0.281    22.239     7.721
     3   6 C        3.734    -0.007    20.786     6.507
     4   7 N        2.630    -0.325    28.373     7.911
     5   8 O        0.859    -0.400    21.683     6.243
     6   1 H        0.923     0.017     2.786     2.610
     7   1 H        0.924     0.058     2.225     2.333
     8   1 H        0.860     0.193     1.142     1.674
     9   1 H        0.860     0.176     1.235     1.741
    10   1 H        0.860     0.141     1.466     1.896
    11   1 H        0.860     0.150     1.402     1.855

Wiberg/Mayer (AO) data.
largest (>0.10) Wiberg bond orders for each atom

     #   Z sym  total        # sym  WBO       # sym  WBO       # sym  WBO
 ---------------------------------------------------------------------------
     1   7 N    3.333 --     2 C    1.219     9 H    0.949     8 H    0.942
                             5 O    0.193
     2   6 C    3.947 --     5 O    1.741     1 N    1.219     3 C    0.958
     3   6 C    3.992 --     4 N    1.030     6 H    0.963     2 C    0.958
                             7 H    0.953
     4   7 N    3.001 --     3 C    1.030    10 H    0.967    11 H    0.963
     5   8 O    2.043 --     2 C    1.741     1 N    0.193
     6   1 H    1.000 --     3 C    0.963
     7   1 H    0.997 --     3 C    0.953
     8   1 H    0.963 --     1 N    0.942
     9   1 H    0.969 --     1 N    0.949
    10   1 H    0.980 --     4 N    0.967
    11   1 H    0.978 --     4 N    0.963
 ---------------------------------------------------------------------------

molecular dipole:
                 x           y           z       tot (Debye)
 q only:       -0.315      -1.061       0.869
   full:       -0.440      -1.554       1.118       4.994

           -------------------------------------------------
          | TOTAL ENERGY              -17.228700920749 Eh   |
          | GRADIENT NORM               0.000923801729 Eh/α |
          | HOMO-LUMO GAP               4.249058375878 eV   |
           -------------------------------------------------

 * finished run on 2023/11/18 at 08:09:40.490
