                               Psi4 1.6 release

  ==> Input File <==

--------------------------------------------------------------------------
molecule {
0 1
C 1.984075411262 -0.425096198732 0.757785897996
N 0.796640920971 0.036284568551 0.052986394344
C -0.370009779273 -0.666758620589 0.532197956011
C -1.609222523401 -0.484837582797 -0.308645683636
C 0.647890183453 1.478971752163 0.206124664211
H -0.163734525536 -1.74663203944 0.53833574819
H -0.643478809668 -0.411142506991 1.580125497137
O -1.700800980599 0.202066166593 -1.313560494123
H 0.512277152049 1.776661871134 1.262119009699
H -0.204322303605 1.821871084313 -0.377985001474
H 2.112172363122 -1.499141253415 0.59960544021
H 1.941588773764 -0.234479011653 1.845492588957
H 2.86006657441 0.087895714005 0.354184441312
H -2.484624624388 -1.057777853573 0.065915101544
H 1.546604877879 1.968881529833 -0.175340884465
no_reorient
}
memory 20GB
set_num_threads(5)
psi4_io.set_default_path("/scratch/liuchw/Psi4-4_27_Index_0-farH_in17")
set freeze_core True
set PROPERTIES_ORIGIN ["COM"]
set cubeprop_tasks ['esp']
set basis 6-311G**
E, wfn = properties('mp2',properties=['dipole'],return_wfn=True)
cubeprop(wfn)
fchk(wfn, "4_27_Index_0-dma.fchk")
clean()
--------------------------------------------------------------------------

    Molecular point group: c1
  Charge       = 0
  Multiplicity = 1
  Basis Set: 6-311G**
    Blend: 6-311G**
  Basis Set: (6-311G** AUX)
    Blend: CC-PVTZ-JKFIT

    Orbital Energies [Eh]
    ---------------------

    Doubly Occupied:

       1A    -20.554366     2A    -15.554354     3A    -11.336696
       4A    -11.273914     5A    -11.250390     6A    -11.239957
       7A     -1.386334     8A     -1.239823     9A     -1.009501
      10A     -0.954705    11A     -0.857244    12A     -0.772482
      13A     -0.685727    14A     -0.659586    15A     -0.647252
      16A     -0.619664    17A     -0.580555    18A     -0.564356
      19A     -0.543155    20A     -0.518900    21A     -0.516981
      22A     -0.489702    23A     -0.421787    24A     -0.368316

  @DF-RHF Final Energy:  -286.05948948144055

   => Energetics <=

    Nuclear Repulsion Energy =            246.8499144814785780
    One-Electron Energy =                -877.7273169715358563
    Two-Electron Energy =                 344.8179130086167561
    Total Energy =                       -286.0594894814405507
  Basis Set: (6-311G** AUX)
    Blend: CC-PVTZ-RI
    Molecular point group: c1

    Geometry (in Angstrom), charge = 0, multiplicity = 1:

       Center              X                  Y                   Z               Mass
    ------------   -----------------  -----------------  -----------------  -----------------
         C            2.015045787525    -0.462757868643     0.761022042555    12.000000000000
         N            0.827611297234    -0.001377101360     0.056222538903    14.003074004430
         C           -0.339039403010    -0.704420290500     0.535434100570    12.000000000000
         C           -1.578252147138    -0.522499252708    -0.305409539077    12.000000000000
         C            0.678860559716     1.441310082252     0.209360808770    12.000000000000
         H           -0.132764149273    -1.784293709351     0.541571892749     1.007825032230
         H           -0.612508433405    -0.448804176902     1.583361641696     1.007825032230
         O           -1.669830604336     0.164404496682    -1.310324349564    15.994914619570
         H            0.543247528312     1.739000201223     1.265355154258     1.007825032230
         H           -0.173351927342     1.784209414402    -0.374748856915     1.007825032230
         H            2.143142739385    -1.536802923326     0.602841584769     1.007825032230
         H            1.972559150027    -0.272140681564     1.848728733516     1.007825032230
         H            2.891036950673     0.050234044094     0.357420585871     1.007825032230
         H           -2.453654248125    -1.095439523484     0.069151246103     1.007825032230
         H            1.577575254142     1.931219859922    -0.172104739906     1.007825032230

  Basis Set: 6-311G**
    Blend: 6-311G**
  Basis Set: (6-311G** AUX)
    Blend: CC-PVTZ-JKFIT
	 Reference Energy          =    -286.0594894814405507 [Eh]
	 Singles Energy            =      -0.0000000000000000 [Eh]
	 Same-Spin Energy          =      -0.2368136043512716 [Eh]
	 Opposite-Spin Energy      =      -0.7316841326554840 [Eh]
	 Correlation Energy        =      -0.9684977370067556 [Eh]
	 Total Energy              =    -287.0279872184473220 [Eh]

	 ================> DF-SCS-MP2 Energies <==================
	-----------------------------------------------------------
	 SCS Same-Spin Scale       =       0.3333333333333333 [-]
	 SCS Opposite-Spin Scale   =       1.2000000000000000 [-]
	 SCS Same-Spin Energy      =      -0.0789378681170905 [Eh]
	 SCS Opposite-Spin Energy  =      -0.8780209591865809 [Eh]
	 SCS Correlation Energy    =      -0.9569588273036713 [Eh]
	 SCS Total Energy          =    -287.0164483087442022 [Eh]
	-----------------------------------------------------------

 Dipole X            :         -5.1326621            5.3849747            0.2523126
 Dipole Y            :         -0.7423940            0.3450164           -0.3973776
 Dipole Z            :         -4.3922594            5.3573446            0.9650853
 Magnitude           :                                                    1.0737598
  Basis Set: 6-311G**
    Blend: 6-311G**
*** Psi4 exiting successfully. Buy a developer a beer!
