                               Psi4 1.6 release

  ==> Input File <==

--------------------------------------------------------------------------
molecule {
0 1
 C   -0.641898   -0.302755    0.285195
 N    0.462493   -0.854211    1.003193
 C    1.729921   -0.441164    0.646873
 C    1.960373    1.050594    0.865755
 C    0.289212   -2.280200    1.267388
 O    2.654321   -1.197150    0.432816
 C   -1.717620    0.227944    0.984152
 C   -2.842346    0.669166   -1.088966
 C   -2.815032    0.712777    0.295121
 C   -1.770678    0.136656   -1.785713
 C   -0.673677   -0.357141   -1.102450
 H    1.270349   -2.747213    1.321952
 H   -0.303258   -2.766789    0.490166
 H   -0.226417   -2.396274    2.222201
 N    3.253016    1.528267    0.414051
 H    1.890619    1.227969    1.945116
 H    1.171925    1.655526    0.406209
 H   -1.684081    0.258257    2.062270
 H   -3.650709    1.126472    0.839604
 H   -1.790337    0.098845   -2.864715
 H    0.165375   -0.778829   -1.637665
 H    3.961474    0.888956    0.773782
 H   -3.699309    1.048326   -1.624808
 H    3.316277    1.398973   -0.594334
}
memory 20GB
set_num_threads(5)
psi4_io.set_default_path("/scratch/liuchw/Psi4-3_25_Index_0_GrowFragment_3-farH_in17")
set freeze_core True
E, wfn = energy('wb97x-d/6-311+G*',return_wfn=True)
oeprop(wfn,"WIBERG_LOWDIN_INDICES")
clean()
--------------------------------------------------------------------------

    Molecular point group: c1

    Geometry (in Angstrom), charge = 0, multiplicity = 1:

       Center              X                  Y                   Z               Mass
    ------------   -----------------  -----------------  -----------------  -----------------
         C           -0.746279355698    -0.194814899778     0.074690065442    12.000000000000
         N            0.358111644302    -0.746270899778     0.792688065442    14.003074004430
         C            1.625539644302    -0.333223899778     0.436368065442    12.000000000000
         C            1.855991644302     1.158534100222     0.655250065442    12.000000000000
         C            0.184830644302    -2.172259899778     1.056883065442    12.000000000000
         O            2.549939644302    -1.089209899778     0.222311065442    15.994914619570
         C           -1.822001355698     0.335884100222     0.773647065442    12.000000000000
         C           -2.946727355698     0.777106100222    -1.299470934558    12.000000000000
         C           -2.919413355698     0.820717100222     0.084616065442    12.000000000000
         C           -1.875059355698     0.244596100222    -1.996217934558    12.000000000000
         C           -0.778058355698    -0.249200899778    -1.312954934558    12.000000000000
         H            1.165967644302    -2.639272899778     1.111447065442     1.007825032230
         H           -0.407639355698    -2.658848899778     0.279661065442     1.007825032230
         H           -0.330798355698    -2.288333899778     2.011696065442     1.007825032230
         N            3.148634644302     1.636207100222     0.203546065442    14.003074004430
         H            1.786237644302     1.335909100222     1.734611065442     1.007825032230
         H            1.067543644302     1.763466100222     0.195704065442     1.007825032230
         H           -1.788462355698     0.366197100222     1.851765065442     1.007825032230
         H           -3.755090355698     1.234412100222     0.629099065442     1.007825032230
         H           -1.894718355698     0.206785100222    -3.075219934558     1.007825032230
         H            0.060993644302    -0.670888899778    -1.848169934558     1.007825032230
         H            3.857092644302     0.996896100222     0.563277065442     1.007825032230
         H           -3.803690355698     1.156266100222    -1.835312934558     1.007825032230
         H            3.211895644302     1.506913100222    -0.804838934558     1.007825032230

  Charge       = 0
  Multiplicity = 1
  Basis Set: 6-311+G*
    Blend: 6-311+G*
  Basis Set: (6-311+G* AUX)
    Blend: HEAVY-AUG-CC-PVTZ-JKFIT

    Orbital Energies [Eh]
    ---------------------

    Doubly Occupied:

       1A    -19.231687     2A    -14.464077     3A    -14.409409
       4A    -10.391191     5A    -10.340730     6A    -10.314451
       7A    -10.309261     8A    -10.304169     9A    -10.303458
      10A    -10.303401    11A    -10.301705    12A    -10.301450
      13A     -1.162741    14A     -1.060910    15A     -0.987929
      16A     -0.973260    17A     -0.869895    18A     -0.862519
      19A     -0.832240    20A     -0.766860    21A     -0.730162
      22A     -0.720655    23A     -0.660992    24A     -0.620105
      25A     -0.601416    26A     -0.593253    27A     -0.575717
      28A     -0.566786    29A     -0.548304    30A     -0.537747
      31A     -0.527642    32A     -0.511501    33A     -0.500592
      34A     -0.488739    35A     -0.486747    36A     -0.472090
      37A     -0.454527    38A     -0.449555    39A     -0.440665
      40A     -0.372492    41A     -0.350844    42A     -0.347646
      43A     -0.336941    44A     -0.324594

  @DF-RKS Final Energy:  -534.85227697037817

   => Energetics <=

    Nuclear Repulsion Energy =            690.3666325497699745
    One-Electron Energy =               -2093.5709240713990766
    Two-Electron Energy =                 920.5732403131064530
    DFT Exchange-Correlation Energy =     -52.2065082984135032
    Empirical Dispersion Energy =          -0.0147174634420711
    VV10 Nonlocal Energy =                  0.0000000000000000
    Total Energy =                       -534.8522769703781705
 Dipole X            :         -0.6072577           -0.7766591           -1.3839168
 Dipole Y            :         -0.4251988            0.2823285           -0.1428703
 Dipole Z            :         -0.9243980            0.7610112           -0.1633869
 Magnitude           :                                                    1.4008330
*** Psi4 exiting successfully. Buy a developer a beer!
