   * xtb version 6.5.0 (97a52f5) compiled by 'conda@d2599ee0d4f4' on 2022-05-15
          program call               : /home/liuchw/anaconda3/envs/xtbenv/bin/xtb --gfn 2 --chrg 0 --uhf 0 3_25_Index_0_GrowFragment_3-opt-2-3-343_preQMOPTprefit_xyzformat.xyz --opt --input xtb-opt-2-3-343_constr.txt

   ID    Z sym.   atoms
    1    6 C      1, 3-5, 7-11
    2    7 N      2, 15
    3    8 O      6
    4    1 H      12-14, 16-24
constraining angle 1 2 3 4 to  343.0035726°, actual value:  -16.9964274°
constraining angle 11 1 2 3 to   53.2164207°, actual value:   53.2164207°
constraining angle 2 3 4 15 to  183.9708879°, actual value: -176.0291121°
constraining angle 1 2 5 13 to   30.0043597°, actual value:   30.0043597°
constraining angle 16 4 15 22 to   71.0255912°, actual value:   71.0255912°
constraining angle 17 4 15 22 to  186.0341431°, actual value: -173.9658569°
constraining angle 16 4 15 24 to  181.9697260°, actual value: -178.0302740°
constraining angle 17 4 15 24 to  296.9782779°, actual value:  -63.0217221°

          :  Hamiltonian                  GFN2-xTB          :
 * total energy  :   -35.2669832 Eh     change       -0.3232856E-08 Eh
 * total energy  :   -35.2789887 Eh     change       -0.1200551E-01 Eh
 * total energy  :   -35.2774208 Eh     change        0.1567864E-02 Eh
 * total energy  :   -35.2839289 Eh     change       -0.6508069E-02 Eh
 * total energy  :   -35.2851363 Eh     change       -0.1207372E-02 Eh
 * total energy  :   -35.2863289 Eh     change       -0.1192610E-02 Eh
 * total energy  :   -35.2870861 Eh     change       -0.7571820E-03 Eh
 * total energy  :   -35.2875753 Eh     change       -0.4892191E-03 Eh
 * total energy  :   -35.2878619 Eh     change       -0.2866261E-03 Eh
 * total energy  :   -35.2880367 Eh     change       -0.1747343E-03 Eh
 * total energy  :   -35.2881024 Eh     change       -0.6571617E-04 Eh
 * total energy  :   -35.2881462 Eh     change       -0.4382908E-04 Eh
 * total energy  :   -35.2881717 Eh     change       -0.2545291E-04 Eh
 * total energy  :   -35.2881865 Eh     change       -0.1488918E-04 Eh
 * total energy  :   -35.2881910 Eh     change       -0.4427946E-05 Eh
 * total energy  :   -35.2881920 Eh     change       -0.1016477E-05 Eh
 * total energy  :   -35.2881932 Eh     change       -0.1242709E-05 Eh
   *** GEOMETRY OPTIMIZATION CONVERGED AFTER 17 ITERATIONS ***

 final structure:
================
24
 xtb: 6.5.0 (97a52f5)
C           -0.67355456661552       -0.34034078229008        0.25415565103949
N            0.32062153860444       -0.36579174223510        1.25636747363604
C            1.58882921996860        0.13379373253225        1.17012863309317
C            2.19221209890058        0.45095425239793       -0.19487501636989
C           -0.12221698246650       -0.69561099434280        2.60370723167513
O            2.26475414078630        0.26958022687020        2.17401293022851
C           -1.92176919044928        0.20474963862500        0.55865635864239
C           -2.69218104598251       -0.21335430894562       -1.67537963363428
C           -2.91926268441975        0.26293383039096       -0.39574095856023
C           -1.46000141297233       -0.76125388939431       -1.98402906150295
C           -0.45717755859868       -0.82423868481132       -1.03287448080728
H            0.69833226277056       -1.19725537336355        3.11617449538528
H           -0.98326341030593       -1.35731831847640        2.54687955164485
H           -0.37585828605025        0.19870706004953        3.17810808059476
N            3.57426318255589        0.88677541986046       -0.10710440480581
H            1.60602443000776        1.21412919180421       -0.71742628289066
H            2.18870513083924       -0.43930683524038       -0.82660447207021
H           -2.11013486656656        0.59737927516052        1.54560076461671
H           -3.87679918825116        0.69059243553553       -0.13787952957597
H           -1.27352216390749       -1.15025896152659       -2.97390843324061
H            0.47284742459546       -1.30344671637246       -1.28724308869956
H            3.62921340464627        1.65786457614538        0.55705224246246
H           -3.46980196006639       -0.16385571484571       -2.42200713705304
H            4.10972647297751        0.15156970247204        0.35142608619151

          :  Hamiltonian                  GFN2-xTB          :
         :: total energy             -35.288193237128 Eh    ::
         :: gradient norm              0.000484942944 Eh/a0 ::
         :: HOMO-LUMO gap              3.475752042668 eV    ::
         :: SCC energy               -35.810736767535 Eh    ::
         :: -> dispersion             -0.020971116565 Eh    ::
         :: repulsion energy           0.522399968502 Eh    ::

    * Orbital Energies and Occupations

         #    Occupation            Energy/Eh            Energy/eV
      -------------------------------------------------------------
         1        2.0000           -0.7018559             -19.0985
       ...           ...                  ...                  ...
        20        2.0000           -0.4959002             -13.4941
        21        2.0000           -0.4915192             -13.3749
        22        2.0000           -0.4901017             -13.3363
        23        2.0000           -0.4851728             -13.2022
        24        2.0000           -0.4766146             -12.9693
        25        2.0000           -0.4509657             -12.2714
        26        2.0000           -0.4451504             -12.1132
        27        2.0000           -0.4408818             -11.9970
        28        2.0000           -0.4293845             -11.6841
        29        2.0000           -0.4190393             -11.4026
        30        2.0000           -0.4079621             -11.1012
        31        2.0000           -0.3872187             -10.5368
        32        2.0000           -0.3706170             -10.0850 (HOMO)
        33                         -0.2428855              -6.6093 (LUMO)
        34                         -0.2372140              -6.4549
        35                         -0.2060965              -5.6082
        36                         -0.1062880              -2.8922
        37                         -0.0139667              -0.3801
        38                          0.0673111               1.8316
        39                          0.0749947               2.0407
        40                          0.0965375               2.6269
        41                          0.1235669               3.3624
        42                          0.1316944               3.5836
        43                          0.1425600               3.8793
       ...                                ...                  ...
        60                          0.6580037              17.9052
      -------------------------------------------------------------
                  HL-Gap            0.1277315 Eh            3.4758 eV

     #   Z          covCN         q      C6AA      α(0)
     1   6 C        2.912     0.062    26.617     8.460
     2   7 N        2.737    -0.098    23.152     7.146
     3   6 C        2.768     0.253    22.742     7.810
     4   6 C        3.732    -0.005    20.764     6.504
     5   6 C        3.712    -0.038    21.384     6.608
     6   8 O        0.860    -0.437    22.426     6.349
     7   6 C        2.925    -0.046    29.138     8.852
     8   6 C        2.919    -0.033    28.831     8.805
     9   6 C        2.920    -0.028    28.699     8.785
    10   6 C        2.921    -0.027    28.679     8.782
    11   6 C        2.922    -0.048    29.187     8.859
    12   1 H        0.925     0.076     2.021     2.223
    13   1 H        0.925     0.052     2.299     2.371
    14   1 H        0.924     0.053     2.287     2.365
    15   7 N        2.628    -0.336    28.650     7.950
    16   1 H        0.924     0.047     2.354     2.399
    17   1 H        0.924     0.053     2.289     2.366
    18   1 H        0.926     0.042     2.420     2.433
    19   1 H        0.926     0.038     2.471     2.458
    20   1 H        0.926     0.040     2.453     2.449
    21   1 H        0.926     0.039     2.463     2.454
    22   1 H        0.860     0.152     1.385     1.844
    23   1 H        0.926     0.038     2.478     2.462
    24   1 H        0.860     0.151     1.395     1.850

Wiberg/Mayer (AO) data.
largest (>0.10) Wiberg bond orders for each atom

     #   Z sym  total        # sym  WBO       # sym  WBO       # sym  WBO
 ---------------------------------------------------------------------------
     1   6 C    3.966 --    11 C    1.386     7 C    1.378     2 N    1.037
                             8 C    0.102
     2   7 N    3.508 --     3 C    1.202     1 C    1.037     5 C    0.985
                             6 O    0.171
     3   6 C    3.945 --     6 O    1.687     2 N    1.202     4 C    0.956
     4   6 C    3.992 --    15 N    1.039    16 H    0.958     3 C    0.956
                            17 H    0.951
     5   6 C    3.966 --     2 N    0.985    13 H    0.983    14 H    0.975
                            12 H    0.975
     6   8 O    2.000 --     3 C    1.687     2 N    0.171
     7   6 C    3.990 --     9 C    1.454     1 C    1.378    18 H    0.967
                            10 C    0.109
     8   6 C    3.985 --    10 C    1.437     9 C    1.432    23 H    0.971
                             1 C    0.102
     9   6 C    3.991 --     7 C    1.454     8 C    1.432    19 H    0.970
                            11 C    0.108
    10   6 C    3.991 --    11 C    1.446     8 C    1.437    20 H    0.970
                             7 C    0.109
    11   6 C    3.991 --    10 C    1.446     1 C    1.386    21 H    0.962
                             9 C    0.108
    12   1 H    0.993 --     5 C    0.975
    13   1 H    0.997 --     5 C    0.983
    14   1 H    0.997 --     5 C    0.975
    15   7 N    3.005 --     4 C    1.039    24 H    0.961    22 H    0.960
    16   1 H    0.998 --     4 C    0.958
    17   1 H    0.997 --     4 C    0.951
    18   1 H    0.998 --     7 C    0.967
    19   1 H    0.998 --     9 C    0.970
    20   1 H    0.998 --    10 C    0.970
    21   1 H    0.998 --    11 C    0.962
    22   1 H    0.977 --    15 N    0.960
    23   1 H    0.998 --     8 C    0.971
    24   1 H    0.977 --    15 N    0.961
 ---------------------------------------------------------------------------

molecular dipole:
                 x           y           z       tot (Debye)
 q only:       -1.135      -0.349      -0.529
   full:       -1.348      -0.412      -0.314       3.670

           -------------------------------------------------
          | TOTAL ENERGY              -35.288193237128 Eh   |
          | GRADIENT NORM               0.000484942944 Eh/α |
          | HOMO-LUMO GAP               3.475752042668 eV   |
           -------------------------------------------------

 * finished run on 2023/11/18 at 08:28:13.525
