                               Psi4 1.6 release

  ==> Input File <==

--------------------------------------------------------------------------
molecule {
0 1
C          1.74620       -1.05080        0.18250
N          2.96770       -1.22590        0.93830
C          4.20790       -0.75070        0.46350
C          5.41700       -0.91200        1.42550
C          2.83610       -1.83070        2.26690
O          4.37860       -0.19540       -0.62670
C          0.49640       -1.04020        0.82360
C         -0.69030       -0.69330       -1.27690
C         -0.69900       -0.87610        0.10610
C          0.54570       -0.74670       -1.92620
C          1.74110       -0.91260       -1.20990
H          3.76190       -2.31380        2.58500
H          2.07280       -2.61550        2.26200
H          2.58270       -1.04830        2.98880
N          6.60930       -0.19800        0.91940
H          5.63850       -1.98490        1.46880
H          5.16110       -0.54490        2.42510
H          0.40570       -1.13160        1.90150
H         -1.63560       -0.88150        0.65530
H          0.59670       -0.66530       -3.00930
H          2.65370       -0.96970       -1.79450
H         -1.56360       -0.52500       -1.80050
H          6.84300       -0.54370       -0.01130
H          7.39510       -0.35950        1.54930
}
memory 208GB
set_num_threads(51)
psi4_io.set_default_path("/scratch/liuchw/Psi4-farH_in17")
set maxiter 500
set freeze_core True
set PROPERTIES_ORIGIN ["COM"]
set cubeprop_tasks ['esp']
set basis MINIX
E, wfn = properties('hf',properties=['dipole','WIBERG_LOWDIN_INDICES','MULLIKEN_CHARGES'],return_wfn=True)
cubeprop(wfn)
fchk(wfn, "farH_in17-esp_frag.fchk")
clean()
--------------------------------------------------------------------------

    Molecular point group: c1

    Geometry (in Angstrom), charge = 0, multiplicity = 1:

       Center              X                  Y                   Z               Mass
    ------------   -----------------  -----------------  -----------------  -----------------
         C           -0.847013877913    -0.182329855254    -0.034100468991    12.000000000000
         N            0.374486122087    -0.357429855254     0.721699531009    14.003074004430
         C            1.614686122087     0.117770144746     0.246899531009    12.000000000000
         C            2.823786122087    -0.043529855254     1.208899531009    12.000000000000
         C            0.242886122087    -0.962229855254     2.050299531009    12.000000000000
         O            1.785386122087     0.673070144746    -0.843300468991    15.994914619570
         C           -2.096813877913    -0.171729855254     0.606999531009    12.000000000000
         C           -3.283513877913     0.175170144746    -1.493500468991    12.000000000000
         C           -3.292213877913    -0.007629855254    -0.110500468991    12.000000000000
         C           -2.047513877913     0.121770144746    -2.142800468991    12.000000000000
         C           -0.852113877913    -0.044129855254    -1.426500468991    12.000000000000
         H            1.168686122087    -1.445329855254     2.368399531009     1.007825032230
         H           -0.520413877913    -1.747029855254     2.045399531009     1.007825032230
         H           -0.010513877913    -0.179829855254     2.772199531009     1.007825032230
         N            4.016086122087     0.670470144746     0.702799531009    14.003074004430
         H            3.045286122087    -1.116429855254     1.252199531009     1.007825032230
         H            2.567886122087     0.323570144746     2.208499531009     1.007825032230
         H           -2.187513877913    -0.263129855254     1.684899531009     1.007825032230
         H           -4.228813877913    -0.013029855254     0.438699531009     1.007825032230
         H           -1.996513877913     0.203170144746    -3.225900468991     1.007825032230
         H            0.060486122087    -0.101229855254    -2.011100468991     1.007825032230
         H           -4.156813877913     0.343470144746    -2.017100468991     1.007825032230
         H            4.249786122087     0.324770144746    -0.227900468991     1.007825032230
         H            4.801886122087     0.508970144746     1.332699531009     1.007825032230

  Charge       = 0
  Multiplicity = 1
  Basis Set: MINIX
    Blend: MINIX
  Basis Set: (MINIX AUX)
    Blend: DEF2-UNIVERSAL-JKFIT

    Orbital Energies [Eh]
    ---------------------

    Doubly Occupied:

       1A    -20.300412     2A    -15.454009     3A    -15.365866
       4A    -11.321918     5A    -11.235141     6A    -11.218523
       7A    -11.213854     8A    -11.175998     9A    -11.172911
      10A    -11.168897    11A    -11.168434    12A    -11.164881
      13A     -1.374577    14A     -1.244495    15A     -1.164467
      16A     -1.145181    17A     -1.024076    18A     -1.013366
      19A     -0.964365    20A     -0.934609    21A     -0.832854
      22A     -0.817551    23A     -0.748944    24A     -0.695999
      25A     -0.695189    26A     -0.665983    27A     -0.652960
      28A     -0.625355    29A     -0.618688    30A     -0.611251
      31A     -0.585806    32A     -0.573022    33A     -0.562006
      34A     -0.555030    35A     -0.535374    36A     -0.530301
      37A     -0.504438    38A     -0.502257    39A     -0.483705
      40A     -0.405486    41A     -0.397398    42A     -0.370694
      43A     -0.342418    44A     -0.308145

  @DF-RHF Final Energy:  -527.89384735489455

   => Energetics <=

    Nuclear Repulsion Energy =            674.9022192563784301
    One-Electron Energy =               -2056.6984953949363444
    Two-Electron Energy =                 853.9024287836633675
    Total Energy =                       -527.8938473548945467
 Dipole X            :         -2.5498298            2.6145849            0.0647551
 Dipole Y            :          1.7084154           -2.9620082           -1.2535928
 Dipole Z            :         -4.9730427            6.1987906            1.2257480
 Magnitude           :                                                    1.7544647

  Mulliken Charges: (a.u.)
   Center  Symbol    Alpha    Beta     Spin     Total
       1     C     2.94920  2.94920  0.00000  0.10160
       2     N     3.65988  3.65988  0.00000 -0.31975
       3     C     2.80186  2.80186  0.00000  0.39628
       4     C     3.08035  3.08035  0.00000 -0.16069
       5     C     3.12298  3.12298  0.00000 -0.24597
       6     O     4.20497  4.20497  0.00000 -0.40993
       7     C     3.07673  3.07673  0.00000 -0.15345
       8     C     3.08012  3.08012  0.00000 -0.16023
       9     C     3.06511  3.06511  0.00000 -0.13022
      10     C     3.06385  3.06385  0.00000 -0.12771
      11     C     3.07041  3.07041  0.00000 -0.14082
      12     H     0.43015  0.43015  0.00000  0.13970
      13     H     0.42616  0.42616  0.00000  0.14768
      14     H     0.43210  0.43210  0.00000  0.13580
      15     N     3.74207  3.74207  0.00000 -0.48414
      16     H     0.43887  0.43887  0.00000  0.12226
      17     H     0.42815  0.42815  0.00000  0.14369
      18     H     0.43280  0.43280  0.00000  0.13440
      19     H     0.43068  0.43068  0.00000  0.13863
      20     H     0.42934  0.42934  0.00000  0.14133
      21     H     0.41624  0.41624  0.00000  0.16752
      22     H     0.43056  0.43056  0.00000  0.13888
      23     H     0.39037  0.39037  0.00000  0.21926
      24     H     0.39705  0.39705  0.00000  0.20589

   Total alpha = 44.00000, Total beta = 44.00000, Total charge = -0.00000

  Basis Set: MINIX
    Blend: MINIX
*** Psi4 exiting successfully. Buy a developer a beer!
