                               Psi4 1.6 release

  ==> Input File <==

--------------------------------------------------------------------------
molecule {
0 1
 C    1.746200   -1.050800    0.182500
 N    2.967700   -1.225900    0.938300
 C    4.207900   -0.750700    0.463500
 C    5.417000   -0.912000    1.425500
 C    2.836100   -1.830700    2.266900
 O    4.378600   -0.195400   -0.626700
 C    0.496400   -1.040200    0.823600
 C   -0.690300   -0.693300   -1.276900
 C   -0.699000   -0.876100    0.106100
 C    0.545700   -0.746700   -1.926200
 C    1.741100   -0.912600   -1.209900
 H    3.761900   -2.313800    2.585000
 H    2.072800   -2.615500    2.262000
 H    2.582700   -1.048300    2.988800
 N    6.609300   -0.198000    0.919400
 H    5.638500   -1.984900    1.468800
 H    5.161100   -0.544900    2.425100
 H    0.405700   -1.131600    1.901500
 H   -1.635600   -0.881500    0.655300
 H    0.596700   -0.665300   -3.009300
 H    2.653700   -0.969700   -1.794500
 H    6.757300   -0.466700   -0.053400
 H   -1.621100   -0.513900   -1.835000
 H    6.457400    0.818900    0.980000
}
set {
  geom_maxiter 400
  g_convergence GAU_LOOSE
  dynamic_level 1
}
geometric_keywords = {
 'coordsys' : 'tric',
 'convergence_cmax' : 1e0,
 'convergence_set' : 'GAU_LOOSE',
 'convergence_energy' : 1e-4,
}
memory 20GB
set_num_threads(5)
psi4_io.set_default_path("/scratch/liuchw/Psi4-3_25_Index_0_GrowFragment_3-farH_in17")
basis {
assign 6-31G*
}
opt_finished = False
if not opt_finished:
    try:
        ener, opt_hist = optimize('mp2',engine='geometric',optimizer_keywords=geometric_keywords, return_history=True)
        opt_finished = len(opt_hist['energy']) < 400
    except Exception as e:
        core.print_out('Exception: %s'%(e))
if not opt_finished:
    try:
        optimize('mp2')
    except:
        set opt_coordinates both
        optimize('mp2')
    opt_finished = True
clean()
assert opt_finished

--------------------------------------------------------------------------

    Molecular point group: c1
  Charge       = 0
  Multiplicity = 1
  Basis Set: ANONYMOUS065EE44E
    Blend: 6-31G*
  Basis Set: (ANONYMOUS065EE44E AUX)
    Blend: CC-PVDZ-JKFIT
  @DF-RHF Final Energy:  -531.54262721395355
    Total Energy =                       -531.5426272139535513
 Dipole X            :         -2.3435348            1.6759491           -0.6675857
 Dipole Y            :          1.3104313           -1.8622005           -0.5517692
 Dipole Z            :         -4.6615312            5.6379017            0.9763705
 Magnitude           :                                                    1.3051510
  Basis Set: (ANONYMOUS065EE44E AUX)
    Blend: CC-PVDZ-RI
    Molecular point group: c1
  Basis Set: ANONYMOUS065EE44E
    Blend: 6-31G*
  Basis Set: (ANONYMOUS065EE44E AUX)
    Blend: CC-PVDZ-JKFIT
  Basis Set: (ANONYMOUS065EE44E AUX)
    Blend: CC-PVDZ-JKFIT
	 Reference Energy          =    -531.5426272139535513 [Eh]
	 Singles Energy            =      -0.0000000000000000 [Eh]
	 Same-Spin Energy          =      -0.4523214722900648 [Eh]
	 Opposite-Spin Energy      =      -1.2564674681441521 [Eh]
	 Correlation Energy        =      -1.7087889404342169 [Eh]
	 Total Energy              =    -533.2514161543878117 [Eh]
	 SCS Total Energy          =    -533.2011619998231708 [Eh]
  @DF-RHF Final Energy:  -531.54788509885088
    Total Energy =                       -531.5478850988508839
  @DF-RHF Final Energy:  -531.55037318313020
    Total Energy =                       -531.5503731831302048
  @DF-RHF Final Energy:  -531.54906064897614
    Total Energy =                       -531.5490606489761376
  @DF-RHF Final Energy:  -531.55175896109972
    Total Energy =                       -531.5517589610997220
  @DF-RHF Final Energy:  -531.54970308891563
    Total Energy =                       -531.5497030889156349
  @DF-RHF Final Energy:  -531.55239120955832
    Total Energy =                       -531.5523912095583228
  @DF-RHF Final Energy:  -531.55284298844037
    Total Energy =                       -531.5528429884403749
  @DF-RHF Final Energy:  -531.55338012456991
    Total Energy =                       -531.5533801245699124
  @DF-RHF Final Energy:  -531.55396718859674
    Total Energy =                       -531.5539671885967437
  @DF-RHF Final Energy:  -531.55398898672524
    Total Energy =                       -531.5539889867252441
  @DF-RHF Final Energy:  -531.55393300186552
    Total Energy =                       -531.5539330018655164
  @DF-RHF Final Energy:  -531.55407447983271
    Total Energy =                       -531.5540744798327069
  @DF-RHF Final Energy:  -531.55408152452890
    Total Energy =                       -531.5540815245288968
  @DF-RHF Final Energy:  -531.55407470379521
    Total Energy =                       -531.5540747037952087
  Charge       = 0
  Multiplicity = 1
  Basis Set: ANONYMOUS065EE44E
    Blend: 6-31G*
  Basis Set: (ANONYMOUS065EE44E AUX)
    Blend: CC-PVDZ-JKFIT

    Orbital Energies [Eh]
    ---------------------

    Doubly Occupied:

       1A    -20.530705     2A    -15.605336     3A    -15.546185
       4A    -11.356564     5A    -11.279866     6A    -11.278921
       7A    -11.270944     8A    -11.238814     9A    -11.237568
      10A    -11.235574    11A    -11.233091    12A    -11.231546
      13A     -1.379929    14A     -1.261874    15A     -1.183193
      16A     -1.141325    17A     -1.019087    18A     -1.015129
      19A     -0.969522    20A     -0.936445    21A     -0.836118
      22A     -0.824586    23A     -0.753831    24A     -0.695994
      25A     -0.692124    26A     -0.681620    27A     -0.662952
      28A     -0.645022    29A     -0.621731    30A     -0.609292
      31A     -0.588135    32A     -0.584607    33A     -0.573227
      34A     -0.558079    35A     -0.552386    36A     -0.517320
      37A     -0.510689    38A     -0.495760    39A     -0.494428
      40A     -0.433264    41A     -0.404098    42A     -0.399045
      43A     -0.333422    44A     -0.313027

  @DF-RHF Final Energy:  -531.55404427338294

   => Energetics <=

    Nuclear Repulsion Energy =            682.2360258515255964
    One-Electron Energy =               -2076.1153932445022292
    Two-Electron Energy =                 862.3253231195938042
    Total Energy =                       -531.5540442733829423
 Dipole X            :         -0.7028879           -0.0627577           -0.7656456
 Dipole Y            :         -3.2029587            2.4310117           -0.7719470
 Dipole Z            :         -7.3360514            8.1497705            0.8137191
 Magnitude           :                                                    1.3580332
  Basis Set: (ANONYMOUS065EE44E AUX)
    Blend: CC-PVDZ-RI
    Molecular point group: c1
  Basis Set: ANONYMOUS065EE44E
    Blend: 6-31G*
  Basis Set: (ANONYMOUS065EE44E AUX)
    Blend: CC-PVDZ-JKFIT
  Basis Set: (ANONYMOUS065EE44E AUX)
    Blend: CC-PVDZ-JKFIT
	 Reference Energy          =    -531.5540442733829423 [Eh]
	 Singles Energy            =      -0.0000000000000000 [Eh]
	 Same-Spin Energy          =      -0.4519329647300782 [Eh]
	 Opposite-Spin Energy      =      -1.2533549395189998 [Eh]
	 Correlation Energy        =      -1.7052879042490781 [Eh]
	 Total Energy              =    -533.2593321776320181 [Eh]

	 ================> DF-SCS-MP2 Energies <==================
	-----------------------------------------------------------
	 SCS Same-Spin Scale       =       0.3333333333333333 [-]
	 SCS Opposite-Spin Scale   =       1.2000000000000000 [-]
	 SCS Same-Spin Energy      =      -0.1506443215766927 [Eh]
	 SCS Opposite-Spin Energy  =      -1.5040259274227996 [Eh]
	 SCS Correlation Energy    =      -1.6546702489994922 [Eh]
	 SCS Total Energy          =    -533.2087145223824791 [Eh]
	-----------------------------------------------------------

  -Total Gradient:
     Atom            X                  Y                   Z
    ------   -----------------  -----------------  -----------------
       1       -0.000049202516    -0.000100440874     0.000043784978
       2        0.000017669743     0.000026749306    -0.000137804766
       3       -0.000022409753     0.000036808704     0.000107608796
       4        0.000045731545     0.000047405163    -0.000014459884
       5       -0.000002812029     0.000030255688    -0.000037146305
       6       -0.000038414705    -0.000085368033     0.000012673842
       7       -0.000015698156     0.000090331335    -0.000064367002
       8        0.000078204007     0.000040410626     0.000038253649
       9       -0.000065231791    -0.000038179464     0.000063168074
      10       -0.000001842384    -0.000083560949    -0.000003337425
      11        0.000026669508     0.000086801994    -0.000005620762
      12        0.000009857529    -0.000004965830    -0.000014160182
      13       -0.000027769169     0.000006928723    -0.000004085013
      14        0.000002959767     0.000011745964    -0.000008344427
      15        0.000055728078    -0.000039002842    -0.000021015136
      16       -0.000000595406    -0.000036515479     0.000039571591
      17       -0.000037027787    -0.000018927213    -0.000002310728
      18       -0.000004644923    -0.000027220226     0.000015305292
      19       -0.000006813824     0.000008321222     0.000003312527
      20        0.000013106335     0.000022335989    -0.000003817754
      21        0.000008459653    -0.000037747534    -0.000010983618
      22       -0.000010852858     0.000043734751    -0.000030088301
      23        0.000002017939    -0.000010472423     0.000003407631
      24        0.000022911200     0.000030571403     0.000030454920

    Molecular point group: c1

    Geometry (in Angstrom), charge = 0, multiplicity = 1:

    C           -0.819055689664    -0.213333199835    -0.055577211470
    N            0.385470195729    -0.449872300041     0.668656155130
    C            1.539263833596     0.219103421829     0.313535118328
    C            2.766298215378     0.009549844494     1.208936809397
    C            0.289526074485    -1.205837311119     1.914157369429
    O            1.613468809092     0.941949673900    -0.681740428452
    C           -1.994026225689     0.095043875242     0.637346676680
    C           -3.209552711780     0.179333004463    -1.450426182868
    C           -3.185958157823     0.283252207044    -0.060698543074
    C           -2.032627911962    -0.119978048426    -2.138248151765
    C           -0.840012650008    -0.325285453172    -1.449664651163
    H            1.197123370741    -1.787582612736     2.075515364094
    H           -0.545598925483    -1.900865028972     1.823805115802
    H            0.122606463197    -0.565836389265     2.788522542340
    N            3.913403402604     0.812630094461     0.819819588169
    H            3.055397741859    -1.048217498709     1.183353732273
    H            2.516920027608     0.234421565489     2.251585933410
    H           -1.976557127159     0.204361346800     1.718400408782
    H           -4.094893744299     0.522085348273     0.485570490718
    H           -2.042845061660    -0.205300137277    -3.221805832739
    H            0.073281592303    -0.562381306390    -1.982445296329
    H            4.071152817302     0.663632136475    -0.176564822231
    H           -4.137727820838     0.331797366601    -1.994470869511
    H            3.644936416093     1.794329203264     0.879631891426

*** Psi4 exiting successfully. Buy a developer a beer!
