   * xtb version 6.5.0 (97a52f5) compiled by 'conda@d2599ee0d4f4' on 2022-05-15
          program call               : /home/liuchw/anaconda3/envs/xtbenv/bin/xtb --gfn 2 --chrg 0 --uhf 0 35_38_Index_0-opt-2-3-030_preQMOPTprefit_xyzformat.xyz --opt --input xtb-opt-2-3-030_constr.txt

   ID    Z sym.   atoms
    1    1 H      1, 5, 6, 8
    2    6 C      2, 4
    3    8 O      3, 7
constraining angle 1 2 3 4 to   30.0117052°, actual value:   30.0117052°
constraining angle 2 3 4 7 to  359.9962421°, actual value:   -0.0037579°

          :  Hamiltonian                  GFN2-xTB          :
 * total energy  :   -14.4398881 Eh     change       -0.2857803E-10 Eh
 * total energy  :   -14.4429476 Eh     change       -0.3059541E-02 Eh
 * total energy  :   -14.4433223 Eh     change       -0.3746802E-03 Eh
 * total energy  :   -14.4432951 Eh     change        0.2723588E-04 Eh
 * total energy  :   -14.4433640 Eh     change       -0.6898011E-04 Eh
 * total energy  :   -14.4433554 Eh     change        0.8613048E-05 Eh
 * total energy  :   -14.4433670 Eh     change       -0.1161186E-04 Eh
 * total energy  :   -14.4433673 Eh     change       -0.2582102E-06 Eh
   *** GEOMETRY OPTIMIZATION CONVERGED AFTER 8 ITERATIONS ***

 final structure:
================
8
 xtb: 6.5.0 (97a52f5)
H           -1.46450844537382       -0.79951811718448        0.04527769884252
C           -1.32464336387058        0.12206684682989        0.61289667570248
O            0.05896280403441        0.46383292935232        0.65785598465900
C            0.80268500130324        0.09487023224370       -0.36958004316419
H           -1.65273798918834       -0.00323734436044        1.64214670089442
H           -1.88532694017386        0.92795102906497        0.13615774339746
O            0.44083555633518       -0.49904875978116       -1.34104797050550
H            1.83967336693377        0.42317617383521       -0.18644377982620

          :  Hamiltonian                  GFN2-xTB          :
         :: total energy             -14.443367303587 Eh    ::
         :: gradient norm              0.000272183048 Eh/a0 ::
         :: HOMO-LUMO gap              5.168392570363 eV    ::
         :: SCC energy               -14.571511858306 Eh    ::
         :: -> dispersion             -0.002866826714 Eh    ::
         :: repulsion energy           0.128144174693 Eh    ::

    * Orbital Energies and Occupations

         #    Occupation            Energy/Eh            Energy/eV
      -------------------------------------------------------------
         1        2.0000           -0.7602222             -20.6867
         2        2.0000           -0.7307094             -19.8836
         3        2.0000           -0.6874490             -18.7064
         4        2.0000           -0.6224014             -16.9364
         5        2.0000           -0.6041154             -16.4388
         6        2.0000           -0.6016044             -16.3705
         7        2.0000           -0.5734191             -15.6035
         8        2.0000           -0.5283902             -14.3782
         9        2.0000           -0.5206423             -14.1674
        10        2.0000           -0.4881258             -13.2826
        11        2.0000           -0.4620183             -12.5722
        12        2.0000           -0.4347218             -11.8294 (HOMO)
        13                         -0.2447869              -6.6610 (LUMO)
        14                          0.0077306               0.2104
        15                          0.1211603               3.2969
        16                          0.1448640               3.9420
        17                          0.1799224               4.8959
        18                          0.1866676               5.0795
        19                          0.2750942               7.4857
        20                          0.6478665              17.6293
      -------------------------------------------------------------
                  HL-Gap            0.1899349 Eh            5.1684 eV

     #   Z          covCN         q      C6AA      α(0)
     1   1 H        0.924     0.077     2.008     2.216
     2   6 C        3.656     0.023    20.488     6.498
     3   8 O        1.703    -0.237    17.933     5.718
     4   6 C        2.666     0.337    21.272     7.547
     5   1 H        0.925     0.074     2.040     2.234
     6   1 H        0.924     0.067     2.115     2.274
     7   8 O        0.856    -0.373    21.155     6.167
     8   1 H        0.923     0.032     2.558     2.501

Wiberg/Mayer (AO) data.
largest (>0.10) Wiberg bond orders for each atom

     #   Z sym  total        # sym  WBO       # sym  WBO       # sym  WBO
 ---------------------------------------------------------------------------
     1   1 H    0.994 --     2 C    0.976
     2   6 C    3.918 --     5 H    0.980     1 H    0.976     6 H    0.976
                             3 O    0.948
     3   8 O    2.344 --     4 C    1.178     2 C    0.948     7 O    0.197
     4   6 C    3.922 --     7 O    1.800     3 O    1.178     8 H    0.915
     5   1 H    0.995 --     2 C    0.980
     6   1 H    0.995 --     2 C    0.976
     7   8 O    2.070 --     4 C    1.800     3 O    0.197
     8   1 H    0.999 --     4 C    0.915
 ---------------------------------------------------------------------------

molecular dipole:
                 x           y           z       tot (Debye)
 q only:       -0.456       0.236       0.684
   full:       -0.381       0.311       0.773       2.328

           -------------------------------------------------
          | TOTAL ENERGY              -14.443367303587 Eh   |
          | GRADIENT NORM               0.000272183048 Eh/α |
          | HOMO-LUMO GAP               5.168392570363 eV   |
           -------------------------------------------------

 * finished run on 2023/11/18 at 08:06:02.508
