                               Psi4 1.6 release

  ==> Input File <==

--------------------------------------------------------------------------
molecule {
0 1
 H   -2.162445    0.267256   -0.397016
 C   -1.404566    0.216024    0.384360
 O   -0.198666    0.782953   -0.124784
 C    0.871807    0.011075   -0.171099
 H   -1.232386   -0.821164    0.676754
 H   -1.720341    0.804260    1.245559
 O    0.955203   -1.131163    0.169530
 H    1.706333    0.600853   -0.586041
}
memory 20GB
set_num_threads(5)
psi4_io.set_default_path("/scratch/liuchw/Psi4-35_38_Index_0-farH_in17")
set freeze_core True
E, wfn = energy('wb97x-d/6-311+G*',return_wfn=True)
oeprop(wfn,"WIBERG_LOWDIN_INDICES")
clean()
--------------------------------------------------------------------------

    Molecular point group: c1

    Geometry (in Angstrom), charge = 0, multiplicity = 1:

       Center              X                  Y                   Z               Mass
    ------------   -----------------  -----------------  -----------------  -----------------
         H           -2.200300393099     0.300353269812    -0.467348667887     1.007825032230
         C           -1.442421393099     0.249121269812     0.314027332113    12.000000000000
         O           -0.236521393099     0.816050269812    -0.195116667887    15.994914619570
         C            0.833951606901     0.044172269812    -0.241431667887    12.000000000000
         H           -1.270241393099    -0.788066730188     0.606421332113     1.007825032230
         H           -1.758196393099     0.837357269812     1.175226332113     1.007825032230
         O            0.917347606901    -1.098065730188     0.099197332113    15.994914619570
         H            1.668477606901     0.633950269812    -0.656373667887     1.007825032230

  Charge       = 0
  Multiplicity = 1
  Basis Set: 6-311+G*
    Blend: 6-311+G*
  Basis Set: (6-311+G* AUX)
    Blend: HEAVY-AUG-CC-PVTZ-JKFIT

    Orbital Energies [Eh]
    ---------------------

    Doubly Occupied:

       1A    -19.311118     2A    -19.247596     3A    -10.421691
       4A    -10.344225     5A     -1.232997     6A     -1.142602
       7A     -0.853195     8A     -0.697470     9A     -0.638530
      10A     -0.588990    11A     -0.577084    12A     -0.520163
      13A     -0.501962    14A     -0.452973    15A     -0.402961
      16A     -0.381484

  @DF-RKS Final Energy:  -229.05167783945359

   => Energetics <=

    Nuclear Repulsion Energy =            122.7474883316718035
    One-Electron Energy =                -555.0351890629485752
    Two-Electron Energy =                 223.7286444895367765
    DFT Exchange-Correlation Energy =     -20.4911094500262472
    Empirical Dispersion Energy =          -0.0015121476873267
    VV10 Nonlocal Energy =                  0.0000000000000000
    Total Energy =                       -229.0516778394535891
 Dipole X            :          2.7658202           -3.3343643           -0.5685440
 Dipole Y            :         -0.3269389            0.9207343            0.5937955
 Dipole Z            :         -0.6499762            0.6163240           -0.0336522
 Magnitude           :                                                    0.8227806
*** Psi4 exiting successfully. Buy a developer a beer!
