   * xtb version 6.5.0 (97a52f5) compiled by 'conda@d2599ee0d4f4' on 2022-05-15
          program call               : /home/liuchw/anaconda3/envs/xtbenv/bin/xtb --gfn 2 --chrg 0 --uhf 0 35_38_Index_0-opt-2-3-360_preQMOPTprefit_xyzformat.xyz --opt --input xtb-opt-2-3-360_constr.txt

   ID    Z sym.   atoms
    1    1 H      1, 5, 6, 8
    2    6 C      2, 4
    3    8 O      3, 7
constraining angle 1 2 3 4 to  359.9996203°, actual value:   -0.0003797°
constraining angle 2 3 4 7 to  359.9999483°, actual value:   -0.0000517°

          :  Hamiltonian                  GFN2-xTB          :
 * total energy  :   -14.4397963 Eh     change       -0.3676881E-10 Eh
 * total energy  :   -14.4429411 Eh     change       -0.3144842E-02 Eh
 * total energy  :   -14.4433368 Eh     change       -0.3956941E-03 Eh
 * total energy  :   -14.4433569 Eh     change       -0.2004949E-04 Eh
 * total energy  :   -14.4433539 Eh     change        0.3015195E-05 Eh
 * total energy  :   -14.4433776 Eh     change       -0.2373679E-04 Eh
 * total energy  :   -14.4433772 Eh     change        0.3730369E-06 Eh
 * total energy  :   -14.4433781 Eh     change       -0.8402920E-06 Eh
   *** GEOMETRY OPTIMIZATION CONVERGED AFTER 8 ITERATIONS ***

 final structure:
================
8
 xtb: 6.5.0 (97a52f5)
H           -1.50110583788357       -0.60793903557331       -0.16733839338625
C           -1.34060642169671        0.16599234408152        0.58514192463767
O            0.01354430317319        0.61207165658958        0.54080055288519
C            0.81519103459169        0.05490007183872       -0.34835299662464
H           -1.53706640488513       -0.22917494811556        1.58150465871763
H           -1.98780477524075        1.02112274640971        0.39172346802867
O            0.53807231378778       -0.79716511120757       -1.13876266972293
H            1.81471578815351        0.51028527597692       -0.24745353453533

          :  Hamiltonian                  GFN2-xTB          :
         :: total energy             -14.443378059104 Eh    ::
         :: gradient norm              0.000986640965 Eh/a0 ::
         :: HOMO-LUMO gap              5.201874856108 eV    ::
         :: SCC energy               -14.571462140012 Eh    ::
         :: -> dispersion             -0.002857598437 Eh    ::
         :: repulsion energy           0.128083671143 Eh    ::

    * Orbital Energies and Occupations

         #    Occupation            Energy/Eh            Energy/eV
      -------------------------------------------------------------
         1        2.0000           -0.7602326             -20.6870
         2        2.0000           -0.7310507             -19.8929
         3        2.0000           -0.6876904             -18.7130
         4        2.0000           -0.6219664             -16.9246
         5        2.0000           -0.6044279             -16.4473
         6        2.0000           -0.6014897             -16.3674
         7        2.0000           -0.5737416             -15.6123
         8        2.0000           -0.5300172             -14.4225
         9        2.0000           -0.5203393             -14.1592
        10        2.0000           -0.4865489             -13.2397
        11        2.0000           -0.4609272             -12.5425
        12        2.0000           -0.4357218             -11.8566 (HOMO)
        13                         -0.2445564              -6.6547 (LUMO)
        14                          0.0057768               0.1572
        15                          0.1215059               3.3063
        16                          0.1478181               4.0223
        17                          0.1784079               4.8547
        18                          0.1861135               5.0644
        19                          0.2784398               7.5767
        20                          0.6486306              17.6501
      -------------------------------------------------------------
                  HL-Gap            0.1911654 Eh            5.2019 eV

     #   Z          covCN         q      C6AA      α(0)
     1   1 H        0.924     0.082     1.962     2.190
     2   6 C        3.652     0.019    20.554     6.511
     3   8 O        1.703    -0.237    17.929     5.717
     4   6 C        2.663     0.338    21.258     7.544
     5   1 H        0.925     0.070     2.084     2.258
     6   1 H        0.925     0.070     2.084     2.258
     7   8 O        0.856    -0.375    21.189     6.171
     8   1 H        0.923     0.033     2.550     2.497

Wiberg/Mayer (AO) data.
largest (>0.10) Wiberg bond orders for each atom

     #   Z sym  total        # sym  WBO       # sym  WBO       # sym  WBO
 ---------------------------------------------------------------------------
     1   1 H    0.993 --     2 C    0.975
     2   6 C    3.916 --     6 H    0.977     5 H    0.977     1 H    0.975
                             3 O    0.947
     3   8 O    2.347 --     4 C    1.181     2 C    0.947     7 O    0.198
     4   6 C    3.922 --     7 O    1.796     3 O    1.181     8 H    0.915
     5   1 H    0.995 --     2 C    0.977
     6   1 H    0.995 --     2 C    0.977
     7   8 O    2.072 --     4 C    1.796     3 O    0.198
     8   1 H    0.999 --     4 C    0.915
 ---------------------------------------------------------------------------

molecular dipole:
                 x           y           z       tot (Debye)
 q only:       -0.503       0.374       0.584
   full:       -0.438       0.473       0.663       2.351

           -------------------------------------------------
          | TOTAL ENERGY              -14.443378059104 Eh   |
          | GRADIENT NORM               0.000986640965 Eh/α |
          | HOMO-LUMO GAP               5.201874856108 eV   |
           -------------------------------------------------

 * finished run on 2023/11/18 at 08:05:49.692
