                               Psi4 1.6 release

  ==> Input File <==

--------------------------------------------------------------------------
molecule {
0 1
 H   -2.261094    0.479793   -0.280398
 C   -1.412581    0.192617    0.336297
 O   -0.244752    0.708472   -0.298664
 C    0.878540    0.034111   -0.131151
 H   -1.343757   -0.893223    0.421765
 H   -1.509428    0.627483    1.332604
 O    1.025984   -0.970018    0.499459
 H    1.682028    0.550857   -0.682651
}
memory 20GB
set_num_threads(5)
psi4_io.set_default_path("/scratch/liuchw/Psi4-35_38_Index_0-farH_in17")
set freeze_core True
E, wfn = energy('wb97x-d/6-311+G*',return_wfn=True)
oeprop(wfn,"WIBERG_LOWDIN_INDICES")
clean()
--------------------------------------------------------------------------

    Molecular point group: c1

    Geometry (in Angstrom), charge = 0, multiplicity = 1:

       Center              X                  Y                   Z               Mass
    ------------   -----------------  -----------------  -----------------  -----------------
         H           -2.304880891234     0.491318516114    -0.388209416641     1.007825032230
         C           -1.456367891234     0.204142516114     0.228485583359    12.000000000000
         O           -0.288538891234     0.719997516114    -0.406475416641    15.994914619570
         C            0.834753108766     0.045636516114    -0.238962416641    12.000000000000
         H           -1.387543891234    -0.881697483886     0.313953583359     1.007825032230
         H           -1.553214891234     0.639008516114     1.224792583359     1.007825032230
         O            0.982197108766    -0.958492483886     0.391647583359    15.994914619570
         H            1.638241108766     0.562382516114    -0.790462416641     1.007825032230

  Charge       = 0
  Multiplicity = 1
  Basis Set: 6-311+G*
    Blend: 6-311+G*
  Basis Set: (6-311+G* AUX)
    Blend: HEAVY-AUG-CC-PVTZ-JKFIT

    Orbital Energies [Eh]
    ---------------------

    Doubly Occupied:

       1A    -19.311335     2A    -19.248062     3A    -10.421258
       4A    -10.345210     5A     -1.233473     6A     -1.142457
       7A     -0.852883     8A     -0.698009     9A     -0.638019
      10A     -0.589708    11A     -0.577039    12A     -0.521177
      13A     -0.498811    14A     -0.455333    15A     -0.404674
      16A     -0.380831

  @DF-RKS Final Energy:  -229.05249707997683

   => Energetics <=

    Nuclear Repulsion Energy =            122.8543178864187553
    One-Electron Energy =                -555.2445763375051229
    Two-Electron Energy =                 223.8293396795120600
    DFT Exchange-Correlation Energy =     -20.4900147944877205
    Empirical Dispersion Energy =          -0.0015635139148355
    VV10 Nonlocal Energy =                  0.0000000000000000
    Total Energy =                       -229.0524970799768880
 Dipole X            :          2.7772812           -3.3784930           -0.6012119
 Dipole Y            :         -0.2445283            0.7591531            0.5146248
 Dipole Z            :         -0.5393942            0.3374875           -0.2019068
 Magnitude           :                                                    0.8167378
*** Psi4 exiting successfully. Buy a developer a beer!
