   * xtb version 6.5.0 (97a52f5) compiled by 'conda@d2599ee0d4f4' on 2022-05-15
          program call               : /home/liuchw/anaconda3/envs/xtbenv/bin/xtb --gfn 2 --chrg 0 --uhf 0 35_38_Index_0-opt-2-3-150_preQMOPTprefit_xyzformat.xyz --opt --input xtb-opt-2-3-150_constr.txt

   ID    Z sym.   atoms
    1    1 H      1, 5, 6, 8
    2    6 C      2, 4
    3    8 O      3, 7
constraining angle 1 2 3 4 to  150.0118619°, actual value:  150.0118619°
constraining angle 2 3 4 7 to  359.9972247°, actual value:   -0.0027753°

          :  Hamiltonian                  GFN2-xTB          :
 * total energy  :   -14.4398705 Eh     change       -0.3695888E-10 Eh
 * total energy  :   -14.4429418 Eh     change       -0.3071278E-02 Eh
 * total energy  :   -14.4433109 Eh     change       -0.3691261E-03 Eh
 * total energy  :   -14.4432029 Eh     change        0.1080196E-03 Eh
 * total energy  :   -14.4433630 Eh     change       -0.1600719E-03 Eh
 * total energy  :   -14.4433615 Eh     change        0.1502156E-05 Eh
 * total energy  :   -14.4433671 Eh     change       -0.5670798E-05 Eh
 * total energy  :   -14.4433674 Eh     change       -0.2985743E-06 Eh
   *** GEOMETRY OPTIMIZATION CONVERGED AFTER 8 ITERATIONS ***

 final structure:
================
8
 xtb: 6.5.0 (97a52f5)
H           -2.19626001087900        0.84069124818015        0.04172364593533
C           -1.42833568994567        0.10296563435784        0.26270812229160
O           -0.29927831740435        0.42444382041963       -0.54666717463728
C            0.89182660410266        0.11303245410711       -0.06799923642876
H           -1.78584547868334       -0.89697449143359        0.01090538375003
H           -1.15293269911410        0.13259439273844        1.31833026370014
O            1.13022144860369       -0.41297174392082        0.97790602227920
H            1.65554314332011        0.42631167555123       -0.79964501689026

          :  Hamiltonian                  GFN2-xTB          :
         :: total energy             -14.443367446037 Eh    ::
         :: gradient norm              0.000532673255 Eh/a0 ::
         :: HOMO-LUMO gap              5.169157714752 eV    ::
         :: SCC energy               -14.571506533962 Eh    ::
         :: -> dispersion             -0.002866575327 Eh    ::
         :: repulsion energy           0.128138688557 Eh    ::

    * Orbital Energies and Occupations

         #    Occupation            Energy/Eh            Energy/eV
      -------------------------------------------------------------
         1        2.0000           -0.7602241             -20.6868
         2        2.0000           -0.7307170             -19.8838
         3        2.0000           -0.6874585             -18.7067
         4        2.0000           -0.6223913             -16.9361
         5        2.0000           -0.6041235             -16.4390
         6        2.0000           -0.6016021             -16.3704
         7        2.0000           -0.5734282             -15.6038
         8        2.0000           -0.5284351             -14.3795
         9        2.0000           -0.5206332             -14.1672
        10        2.0000           -0.4880863             -13.2815
        11        2.0000           -0.4619934             -12.5715
        12        2.0000           -0.4347398             -11.8299 (HOMO)
        13                         -0.2447767              -6.6607 (LUMO)
        14                          0.0076777               0.2089
        15                          0.1211608               3.2970
        16                          0.1449334               3.9438
        17                          0.1798628               4.8943
        18                          0.1866284               5.0784
        19                          0.2751922               7.4884
        20                          0.6478858              17.6299
      -------------------------------------------------------------
                  HL-Gap            0.1899631 Eh            5.1692 eV

     #   Z          covCN         q      C6AA      α(0)
     1   1 H        0.925     0.074     2.041     2.234
     2   6 C        3.655     0.023    20.490     6.498
     3   8 O        1.703    -0.237    17.933     5.717
     4   6 C        2.666     0.337    21.271     7.546
     5   1 H        0.924     0.067     2.115     2.274
     6   1 H        0.924     0.077     2.007     2.215
     7   8 O        0.856    -0.373    21.156     6.167
     8   1 H        0.923     0.032     2.558     2.501

Wiberg/Mayer (AO) data.
largest (>0.10) Wiberg bond orders for each atom

     #   Z sym  total        # sym  WBO       # sym  WBO       # sym  WBO
 ---------------------------------------------------------------------------
     1   1 H    0.995 --     2 C    0.980
     2   6 C    3.918 --     1 H    0.980     6 H    0.976     5 H    0.976
                             3 O    0.948
     3   8 O    2.344 --     4 C    1.179     2 C    0.948     7 O    0.197
     4   6 C    3.922 --     7 O    1.800     3 O    1.179     8 H    0.915
     5   1 H    0.995 --     2 C    0.976
     6   1 H    0.994 --     2 C    0.976
     7   8 O    2.070 --     4 C    1.800     3 O    0.197
     8   1 H    0.999 --     4 C    0.915
 ---------------------------------------------------------------------------

molecular dipole:
                 x           y           z       tot (Debye)
 q only:       -0.759       0.226      -0.325
   full:       -0.747       0.277      -0.453       2.329

           -------------------------------------------------
          | TOTAL ENERGY              -14.443367446037 Eh   |
          | GRADIENT NORM               0.000532673255 Eh/α |
          | HOMO-LUMO GAP               5.169157714752 eV   |
           -------------------------------------------------

 * finished run on 2023/11/18 at 08:08:12.930
