                               Psi4 1.6 release

  ==> Input File <==

--------------------------------------------------------------------------
molecule {
1 1
H 2.004167988783 -0.044962197555 -0.757889323712
C 1.143401371164 0.608679442723 -0.622740427869
N -0.043985169183 -0.226939959381 -0.248352662632
H -0.17895608998 -0.920689590675 -0.995403038676
H 0.92235308646 1.139785767116 -1.547598340986
H 1.328276080374 1.315921059322 0.185114602571
C -1.294463644254 0.596267711785 -0.171451823154
C 0.195162499517 -0.982143180324 1.024431227677
H -1.157377422049 1.349089937552 0.604185086113
H -1.461806067394 1.073614324729 -1.136101190408
H 1.113074771955 -1.559973614308 0.923967167317
H 0.28988166819 -0.259713674705 1.834450870853
H -2.130098554978 -0.056169121771 0.078775983675
H -0.651033856845 -1.643993478971 1.204618996329
}
memory 20GB
set_num_threads(5)
psi4_io.set_default_path("/scratch/liuchw/Psi4-32_40_Index_0-farH_in17")
set maxiter 500
set freeze_core True
set PROPERTIES_ORIGIN ["COM"]
set cubeprop_tasks ['esp']
set basis aug-cc-pVTZ
E, wfn = properties('mp2',properties=['dipole','GRID_ESP','WIBERG_LOWDIN_INDICES','MULLIKEN_CHARGES'],return_wfn=True)
cubeprop(wfn)
fchk(wfn, "32_40_Index_0-esp.fchk")
clean()
--------------------------------------------------------------------------

    Molecular point group: c1
  Charge       = 1
  Multiplicity = 1
  Basis Set: AUG-CC-PVTZ
    Blend: AUG-CC-PVTZ
  Basis Set: (AUG-CC-PVTZ AUX)
    Blend: AUG-CC-PVTZ-JKFIT

    Orbital Energies [Eh]
    ---------------------

    Doubly Occupied:

       1A    -15.879885     2A    -11.463627     3A    -11.463620
       4A    -11.463600     5A     -1.511244     6A     -1.180143
       7A     -1.180038     8A     -1.084848     9A     -0.933869
      10A     -0.860495    11A     -0.860409    12A     -0.771545
      13A     -0.771143    14A     -0.741180    15A     -0.740523
      16A     -0.735648    17A     -0.735470

  @DF-RHF Final Energy:  -173.71835298430267

   => Energetics <=

    Nuclear Repulsion Energy =            146.4023776365320657
    One-Electron Energy =                -515.4868864510486901
    Two-Electron Energy =                 195.3661558302139838
    Total Energy =                       -173.7183529843026690
  Basis Set: (AUG-CC-PVTZ AUX)
    Blend: AUG-CC-PVTZ-RI
    Molecular point group: c1

    Geometry (in Angstrom), charge = 1, multiplicity = 1:

       Center              X                  Y                   Z               Mass
    ------------   -----------------  -----------------  -----------------  -----------------
         H            2.004294968947    -0.043160882134    -0.752602686365     1.007825032230
         C            1.143528351328     0.610480758144    -0.617453790522    12.000000000000
         N           -0.043858189019    -0.225138643960    -0.243066025285    14.003074004430
         H           -0.178829109816    -0.918888275254    -0.990116401329     1.007825032230
         H            0.922480066624     1.141587082537    -1.542311703639     1.007825032230
         H            1.328403060538     1.317722374743     0.190401239918     1.007825032230
         C           -1.294336664090     0.598069027206    -0.166165185807    12.000000000000
         C            0.195289479681    -0.980341864903     1.029717865024    12.000000000000
         H           -1.157250441885     1.350891252973     0.609471723460     1.007825032230
         H           -1.461679087230     1.075415640150    -1.130814553061     1.007825032230
         H            1.113201752119    -1.558172298887     0.929253804664     1.007825032230
         H            0.290008648354    -0.257912359284     1.839737508200     1.007825032230
         H           -2.129971574814    -0.054367806350     0.084062621022     1.007825032230
         H           -0.650906876681    -1.642192163550     1.209905633676     1.007825032230

  Basis Set: AUG-CC-PVTZ
    Blend: AUG-CC-PVTZ
  Basis Set: (AUG-CC-PVTZ AUX)
    Blend: AUG-CC-PVTZ-JKFIT
	 Reference Energy          =    -173.7183529843026690 [Eh]
	 Singles Energy            =      -0.0000000000000000 [Eh]
	 Same-Spin Energy          =      -0.1618673698170585 [Eh]
	 Opposite-Spin Energy      =      -0.5931504246346980 [Eh]
	 Correlation Energy        =      -0.7550177944517565 [Eh]
	 Total Energy              =    -174.4733707787544290 [Eh]

	 ================> DF-SCS-MP2 Energies <==================
	-----------------------------------------------------------
	 SCS Same-Spin Scale       =       0.3333333333333333 [-]
	 SCS Opposite-Spin Scale   =       1.2000000000000000 [-]
	 SCS Same-Spin Energy      =      -0.0539557899390195 [Eh]
	 SCS Opposite-Spin Energy  =      -0.7117805095616376 [Eh]
	 SCS Correlation Energy    =      -0.7657362995006571 [Eh]
	 SCS Total Energy          =    -174.4840892838033142 [Eh]
	-----------------------------------------------------------

 Dipole X            :         -0.1169673            0.0748919           -0.0420754
 Dipole Y            :         -0.6027776            0.3858813           -0.2168963
 Dipole Z            :         -0.6530204            0.4197428           -0.2332775
 Magnitude           :                                                    0.3212985

  Mulliken Charges: (a.u.)
   Center  Symbol    Alpha    Beta     Spin     Total
       1     H     0.31732  0.31732  0.00000  0.36537
       2     C     3.47105  3.47105  0.00000 -0.94210
       3     N     3.23218  3.23218  0.00000  0.53565
       4     H     0.47384  0.47384  0.00000  0.05231
       5     H     0.31860  0.31860  0.00000  0.36281
       6     H     0.32432  0.32432  0.00000  0.35135
       7     C     3.47070  3.47070  0.00000 -0.94139
       8     C     3.47038  3.47038  0.00000 -0.94076
       9     H     0.32427  0.32427  0.00000  0.35146
      10     H     0.31736  0.31736  0.00000  0.36527
      11     H     0.31927  0.31927  0.00000  0.36147
      12     H     0.32425  0.32425  0.00000  0.35149
      13     H     0.31902  0.31902  0.00000  0.36196
      14     H     0.31744  0.31744  0.00000  0.36513

   Total alpha = 17.00000, Total beta = 17.00000, Total charge =  1.00000

  Basis Set: AUG-CC-PVTZ
    Blend: AUG-CC-PVTZ
*** Psi4 exiting successfully. Buy a developer a beer!
