                               Psi4 1.6 release

  ==> Input File <==

--------------------------------------------------------------------------
molecule {
1 1
H 2.004167988783 -0.044962197555 -0.757889323712
C 1.143401371164 0.608679442723 -0.622740427869
N -0.043985169183 -0.226939959381 -0.248352662632
H -0.17895608998 -0.920689590675 -0.995403038676
H 0.92235308646 1.139785767116 -1.547598340986
H 1.328276080374 1.315921059322 0.185114602571
C -1.294463644254 0.596267711785 -0.171451823154
C 0.195162499517 -0.982143180324 1.024431227677
H -1.157377422049 1.349089937552 0.604185086113
H -1.461806067394 1.073614324729 -1.136101190408
H 1.113074771955 -1.559973614308 0.923967167317
H 0.28988166819 -0.259713674705 1.834450870853
H -2.130098554978 -0.056169121771 0.078775983675
H -0.651033856845 -1.643993478971 1.204618996329
no_reorient
}
memory 20GB
set_num_threads(5)
psi4_io.set_default_path("/scratch/liuchw/Psi4-32_40_Index_0-farH_in17")
set freeze_core True
set PROPERTIES_ORIGIN ["COM"]
set cubeprop_tasks ['esp']
set basis 6-311G**
E, wfn = properties('mp2',properties=['dipole'],return_wfn=True)
cubeprop(wfn)
fchk(wfn, "32_40_Index_0-dma.fchk")
clean()
--------------------------------------------------------------------------

    Molecular point group: c1
  Charge       = 1
  Multiplicity = 1
  Basis Set: 6-311G**
    Blend: 6-311G**
  Basis Set: (6-311G** AUX)
    Blend: CC-PVTZ-JKFIT

    Orbital Energies [Eh]
    ---------------------

    Doubly Occupied:

       1A    -15.880039     2A    -11.464982     3A    -11.464975
       4A    -11.464953     5A     -1.513972     6A     -1.181967
       7A     -1.181861     8A     -1.086515     9A     -0.935900
      10A     -0.862188    11A     -0.862107    12A     -0.772707
      13A     -0.772309    14A     -0.742281    15A     -0.741697
      16A     -0.736846    17A     -0.736660

  @DF-RHF Final Energy:  -173.69962926304134

   => Energetics <=

    Nuclear Repulsion Energy =            146.4023776365320657
    One-Electron Energy =                -515.4000966567806472
    Two-Electron Energy =                 195.2980897572072649
    Total Energy =                       -173.6996292630413450
  Basis Set: (6-311G** AUX)
    Blend: CC-PVTZ-RI
    Molecular point group: c1

    Geometry (in Angstrom), charge = 1, multiplicity = 1:

       Center              X                  Y                   Z               Mass
    ------------   -----------------  -----------------  -----------------  -----------------
         H            2.004294968947    -0.043160882134    -0.752602686365     1.007825032230
         C            1.143528351328     0.610480758144    -0.617453790522    12.000000000000
         N           -0.043858189019    -0.225138643960    -0.243066025285    14.003074004430
         H           -0.178829109816    -0.918888275254    -0.990116401329     1.007825032230
         H            0.922480066624     1.141587082537    -1.542311703639     1.007825032230
         H            1.328403060538     1.317722374743     0.190401239918     1.007825032230
         C           -1.294336664090     0.598069027206    -0.166165185807    12.000000000000
         C            0.195289479681    -0.980341864903     1.029717865024    12.000000000000
         H           -1.157250441885     1.350891252973     0.609471723460     1.007825032230
         H           -1.461679087230     1.075415640150    -1.130814553061     1.007825032230
         H            1.113201752119    -1.558172298887     0.929253804664     1.007825032230
         H            0.290008648354    -0.257912359284     1.839737508200     1.007825032230
         H           -2.129971574814    -0.054367806350     0.084062621022     1.007825032230
         H           -0.650906876681    -1.642192163550     1.209905633676     1.007825032230

  Basis Set: 6-311G**
    Blend: 6-311G**
  Basis Set: (6-311G** AUX)
    Blend: CC-PVTZ-JKFIT
	 Reference Energy          =    -173.6996292630413450 [Eh]
	 Singles Energy            =      -0.0000000000000000 [Eh]
	 Same-Spin Energy          =      -0.1426524447256547 [Eh]
	 Opposite-Spin Energy      =      -0.4994265319446167 [Eh]
	 Correlation Energy        =      -0.6420789766702715 [Eh]
	 Total Energy              =    -174.3417082397116076 [Eh]

	 ================> DF-SCS-MP2 Energies <==================
	-----------------------------------------------------------
	 SCS Same-Spin Scale       =       0.3333333333333333 [-]
	 SCS Opposite-Spin Scale   =       1.2000000000000000 [-]
	 SCS Same-Spin Energy      =      -0.0475508149085516 [Eh]
	 SCS Opposite-Spin Energy  =      -0.5993118383335401 [Eh]
	 SCS Correlation Energy    =      -0.6468626532420917 [Eh]
	 SCS Total Energy          =    -174.3464919162834406 [Eh]
	-----------------------------------------------------------

 Dipole X            :         -0.1188614            0.0748919           -0.0439695
 Dipole Y            :         -0.6126984            0.3858813           -0.2268171
 Dipole Z            :         -0.6637753            0.4197428           -0.2440324
 Magnitude           :                                                    0.3360523
  Basis Set: 6-311G**
    Blend: 6-311G**
*** Psi4 exiting successfully. Buy a developer a beer!
