                               Psi4 1.6 release

  ==> Input File <==

--------------------------------------------------------------------------
molecule {
1 1
H         10.92550        1.35050       -0.39040
C         10.06340        2.00750       -0.24900
N          8.87700        1.15390        0.06760
H          8.77110        0.50980       -0.73220
H          9.85230        2.55190       -1.17310
H         10.23150        2.69700        0.58250
C          7.57970        1.96400        0.13400
C          9.07360        0.29770        1.30540
C          6.49030        1.26440        0.98430
H          7.81730        2.94410        0.56150
H          7.25290        2.08490       -0.90420
C          7.86250       -0.64920        1.54090
H          9.99430       -0.27830        1.16640
H          9.19500        0.98920        2.14700
H          6.57290        1.59800        2.02760
H          5.51790        1.62350        0.63090
H          8.11140       -1.63500        1.12980
H          7.74260       -0.77830        2.62420
H          6.59750        0.20250        0.90770
H          6.98030       -0.24800        1.08740
}
memory 208GB
set_num_threads(51)
psi4_io.set_default_path("/scratch/liuchw/Psi4-farH_in17")
set maxiter 500
set freeze_core True
set PROPERTIES_ORIGIN ["COM"]
set cubeprop_tasks ['esp']
set basis MINIX
E, wfn = properties('hf',properties=['dipole','WIBERG_LOWDIN_INDICES','MULLIKEN_CHARGES'],return_wfn=True)
cubeprop(wfn)
fchk(wfn, "farH_in17-esp_frag.fchk")
clean()
--------------------------------------------------------------------------

    Molecular point group: c1

    Geometry (in Angstrom), charge = 1, multiplicity = 1:

       Center              X                  Y                   Z               Mass
    ------------   -----------------  -----------------  -----------------  -----------------
         H            2.599722930522     0.346225522715    -1.017716889755     1.007825032230
         C            1.737622930522     1.003225522715    -0.876316889755    12.000000000000
         N            0.551222930522     0.149625522715    -0.559716889755    14.003074004430
         H            0.445322930522    -0.494474477285    -1.359516889755     1.007825032230
         H            1.526522930522     1.547625522715    -1.800416889755     1.007825032230
         H            1.905722930522     1.692725522715    -0.044816889755     1.007825032230
         C           -0.746077069478     0.959725522715    -0.493316889755    12.000000000000
         C            0.747822930522    -0.706574477285     0.678083110245    12.000000000000
         C           -1.835477069478     0.260125522715     0.356983110245    12.000000000000
         H           -0.508477069478     1.939825522715    -0.065816889755     1.007825032230
         H           -1.072877069478     1.080625522715    -1.531516889755     1.007825032230
         C           -0.463277069478    -1.653474477285     0.913583110245    12.000000000000
         H            1.668522930522    -1.282574477285     0.539083110245     1.007825032230
         H            0.869222930522    -0.015074477285     1.519683110245     1.007825032230
         H           -1.752877069478     0.593725522715     1.400283110245     1.007825032230
         H           -2.807877069478     0.619225522715     0.003583110245     1.007825032230
         H           -0.214377069478    -2.639274477285     0.502483110245     1.007825032230
         H           -0.583177069478    -1.782574477285     1.996883110245     1.007825032230
         H           -1.728277069478    -0.801774477285     0.280383110245     1.007825032230
         H           -1.345477069478    -1.252274477285     0.460083110245     1.007825032230

  Charge       = 1
  Multiplicity = 1
  Basis Set: MINIX
    Blend: MINIX
  Basis Set: (MINIX AUX)
    Blend: DEF2-UNIVERSAL-JKFIT

    Orbital Energies [Eh]
    ---------------------

    Doubly Occupied:

       1A    -15.786697     2A    -11.425857     3A    -11.424290
       4A    -11.420989     5A    -11.316380     6A    -11.302189
       7A     -1.531904     8A     -1.283064     9A     -1.228541
      10A     -1.163777    11A     -1.083222    12A     -1.048877
      13A     -0.956663    14A     -0.883475    15A     -0.861516
      16A     -0.850968    17A     -0.800111    18A     -0.795219
      19A     -0.759769    20A     -0.752075    21A     -0.709562
      22A     -0.701222    23A     -0.689210    24A     -0.676211
      25A     -0.565217

  @DF-RHF Final Energy:  -249.80436687930217

   => Energetics <=

    Nuclear Repulsion Energy =            281.0957990779209013
    One-Electron Energy =                -881.7662933944349106
    Two-Electron Energy =                 350.8661274372118442
    Total Energy =                       -249.8043668793021652
 Dipole X            :          1.6330091           -0.9375508            0.6954583
 Dipole Y            :          0.7194297           -0.4204609            0.2989688
 Dipole Z            :         -1.5257532            0.8290958           -0.6966574
 Magnitude           :                                                    1.0287740

  Mulliken Charges: (a.u.)
   Center  Symbol    Alpha    Beta     Spin     Total
       1     H     0.40841  0.40841  0.00000  0.18319
       2     C     3.11950  3.11950  0.00000 -0.23900
       3     N     3.65921  3.65921  0.00000 -0.31841
       4     H     0.33424  0.33424  0.00000  0.33153
       5     H     0.40816  0.40816  0.00000  0.18368
       6     H     0.40784  0.40784  0.00000  0.18432
       7     C     3.05992  3.05992  0.00000 -0.11984
       8     C     3.06119  3.06119  0.00000 -0.12237
       9     C     3.16100  3.16100  0.00000 -0.32200
      10     H     0.41044  0.41044  0.00000  0.17913
      11     H     0.41272  0.41272  0.00000  0.17457
      12     C     3.16572  3.16572  0.00000 -0.33144
      13     H     0.41155  0.41155  0.00000  0.17689
      14     H     0.41406  0.41406  0.00000  0.17188
      15     H     0.42233  0.42233  0.00000  0.15535
      16     H     0.41728  0.41728  0.00000  0.16544
      17     H     0.42641  0.42641  0.00000  0.14717
      18     H     0.41782  0.41782  0.00000  0.16435
      19     H     0.43919  0.43919  0.00000  0.12162
      20     H     0.44303  0.44303  0.00000  0.11395

   Total alpha = 25.00000, Total beta = 25.00000, Total charge =  1.00000

  Basis Set: MINIX
    Blend: MINIX
*** Psi4 exiting successfully. Buy a developer a beer!
