                               Psi4 1.6 release

  ==> Input File <==

--------------------------------------------------------------------------
molecule {
0 1
 N    1.750685   -0.557772    1.091808
 C    0.625131   -0.219720    0.423927
 C   -0.234482   -1.318791   -0.047449
 C   -1.612035   -1.298714    0.159677
 C    0.294913    1.108628    0.287574
 C    0.323586   -2.392440   -0.740012
 H    2.364605    0.233194    1.295883
 C   -0.880985    1.762398   -0.224171
 N    0.554604    3.345822    0.432399
 C    1.200783    2.174613    0.714864
 C   -0.686328    3.091886   -0.125251
 C   -0.474417   -3.417259   -1.213134
 C   -2.405978   -2.329816   -0.306721
 C   -1.842066   -3.388912   -0.998775
 H    1.386450   -2.413564   -0.938365
 H   -2.050040   -0.494417    0.729250
 H    0.932874    4.258809    0.620464
 O    2.322761    2.089761    1.215086
 H   -0.028125   -4.238596   -1.754418
 H   -3.471218   -2.307521   -0.129343
 H   -2.465155   -4.189723   -1.368109
 H   -1.736598    1.279476   -0.650794
 H   -1.333507    3.902594   -0.399830
 H    2.188926   -1.442528    0.896284
}
memory 20GB
set_num_threads(5)
psi4_io.set_default_path("/scratch/liuchw/Psi4-7_11_Index_0-farH_in17")
set freeze_core True
E, wfn = energy('wb97x-d/6-311+G*',return_wfn=True)
oeprop(wfn,"WIBERG_LOWDIN_INDICES")
clean()
--------------------------------------------------------------------------

    Molecular point group: c1

    Geometry (in Angstrom), charge = 0, multiplicity = 1:

       Center              X                  Y                   Z               Mass
    ------------   -----------------  -----------------  -----------------  -----------------
         N            1.767418644284    -0.516255660202     1.015319886081    14.003074004430
         C            0.641864644284    -0.178203660202     0.347438886081    12.000000000000
         C           -0.217748355716    -1.277274660202    -0.123937113919    12.000000000000
         C           -1.595301355716    -1.257197660202     0.083188886081    12.000000000000
         C            0.311646644284     1.150144339798     0.211085886081    12.000000000000
         C            0.340319644284    -2.350923660202    -0.816500113919    12.000000000000
         H            2.381338644284     0.274710339798     1.219394886081     1.007825032230
         C           -0.864251355716     1.803914339798    -0.300659113919    12.000000000000
         N            0.571337644284     3.387338339798     0.355910886081    14.003074004430
         C            1.217516644284     2.216129339798     0.638375886081    12.000000000000
         C           -0.669594355716     3.133402339798    -0.201739113919    12.000000000000
         C           -0.457683355716    -3.375742660202    -1.289622113919    12.000000000000
         C           -2.389244355716    -2.288299660202    -0.383209113919    12.000000000000
         C           -1.825332355716    -3.347395660202    -1.075263113919    12.000000000000
         H            1.403183644284    -2.372047660202    -1.014853113919     1.007825032230
         H           -2.033306355716    -0.452900660202     0.652761886081     1.007825032230
         H            0.949607644284     4.300325339798     0.543975886081     1.007825032230
         O            2.339494644284     2.131277339798     1.138597886081    15.994914619570
         H           -0.011391355716    -4.197079660202    -1.830906113919     1.007825032230
         H           -3.454484355716    -2.266004660202    -0.205831113919     1.007825032230
         H           -2.448421355716    -4.148206660202    -1.444597113919     1.007825032230
         H           -1.719864355716     1.320992339798    -0.727282113919     1.007825032230
         H           -1.316773355716     3.944110339798    -0.476318113919     1.007825032230
         H            2.205659644284    -1.401011660202     0.819795886081     1.007825032230

  Charge       = 0
  Multiplicity = 1
  Basis Set: 6-311+G*
    Blend: 6-311+G*
  Basis Set: (6-311+G* AUX)
    Blend: HEAVY-AUG-CC-PVTZ-JKFIT

    Orbital Energies [Eh]
    ---------------------

    Doubly Occupied:

       1A    -19.203559     2A    -14.461311     3A    -14.451647
       4A    -10.372960     5A    -10.358684     6A    -10.316396
       7A    -10.311950     8A    -10.307268     9A    -10.303390
      10A    -10.303343    11A    -10.302634    12A    -10.301909
      13A    -10.277459    14A    -10.273088    15A     -1.137090
      16A     -1.057148    17A     -1.048276    18A     -0.981047
      19A     -0.900447    20A     -0.874856    21A     -0.867801
      22A     -0.818515    23A     -0.767326    24A     -0.726414
      25A     -0.714279    26A     -0.686727    27A     -0.665697
      28A     -0.633809    29A     -0.606492    30A     -0.594315
      31A     -0.578288    32A     -0.561122    33A     -0.552209
      34A     -0.530422    35A     -0.526368    36A     -0.513259
      37A     -0.511745    38A     -0.497737    39A     -0.483465
      40A     -0.477054    41A     -0.451581    42A     -0.450349
      43A     -0.436370    44A     -0.411050    45A     -0.350082
      46A     -0.348237    47A     -0.338279    48A     -0.333147
      49A     -0.259114

  @DF-RKS Final Energy:  -609.85511289427745

   => Energetics <=

    Nuclear Repulsion Energy =            821.1763741458918275
    One-Electron Energy =               -2455.2663399587941058
    Two-Electron Energy =                1083.5854548462816638
    DFT Exchange-Correlation Energy =     -59.3362974624107622
    Empirical Dispersion Energy =          -0.0143044652459103
    VV10 Nonlocal Energy =                  0.0000000000000000
    Total Energy =                       -609.8551128942774540
 Dipole X            :          2.9417151           -3.7871016           -0.8453865
 Dipole Y            :          3.9656517           -4.6827389           -0.7170872
 Dipole Z            :          1.6513346           -2.3083046           -0.6569700
 Magnitude           :                                                    1.2886046
*** Psi4 exiting successfully. Buy a developer a beer!
