                               Psi4 1.6 release

  ==> Input File <==

--------------------------------------------------------------------------
molecule {
0 1
 N    1.511594    0.159583   -1.319794
 C    0.437812    0.082279   -0.502141
 C   -0.393600   -1.132338   -0.609243
 C   -0.303348   -1.962364   -1.733337
 C    0.267938    1.111808    0.412963
 C   -1.144142   -1.611697    0.467387
 H    1.991689    1.064598   -1.292601
 C   -0.624742    1.338163    1.520577
 N    0.751311    3.091276    1.411602
 C    1.153971    2.280884    0.389333
 C   -0.311390    2.522999    2.082766
 C   -1.840433   -2.802960    0.390048
 C   -1.002041   -3.151102   -1.813887
 C   -1.784091   -3.577880   -0.754851
 H   -1.152600   -1.073982    1.396719
 H    0.267550   -1.663114   -2.600606
 H    1.189132    3.968085    1.638135
 O    2.082584    2.553637   -0.377012
 H   -2.417061   -3.136725    1.240313
 H   -0.924620   -3.753935   -2.706994
 H   -2.327233   -4.508895   -0.815581
 H   -1.454117    0.736265    1.827929
 H   -0.756882    3.018857    2.923528
 H    1.507108   -0.316028   -2.204412
}
memory 20GB
set_num_threads(5)
psi4_io.set_default_path("/scratch/liuchw/Psi4-7_11_Index_0-farH_in17")
set freeze_core True
E, wfn = energy('wb97x-d/6-311+G*',return_wfn=True)
oeprop(wfn,"WIBERG_LOWDIN_INDICES")
clean()
--------------------------------------------------------------------------

    Molecular point group: c1

    Geometry (in Angstrom), charge = 0, multiplicity = 1:

       Center              X                  Y                   Z               Mass
    ------------   -----------------  -----------------  -----------------  -----------------
         N            1.541900160233     0.171236487150    -1.281382877757    14.003074004430
         C            0.468118160233     0.093932487150    -0.463729877757    12.000000000000
         C           -0.363293839767    -1.120684512850    -0.570831877757    12.000000000000
         C           -0.273041839767    -1.950710512850    -1.694925877757    12.000000000000
         C            0.298244160233     1.123461487150     0.451374122243    12.000000000000
         C           -1.113835839767    -1.600043512850     0.505798122243    12.000000000000
         H            2.021995160233     1.076251487150    -1.254189877757     1.007825032230
         C           -0.594435839767     1.349816487150     1.558988122243    12.000000000000
         N            0.781617160233     3.102929487150     1.450013122243    14.003074004430
         C            1.184277160233     2.292537487150     0.427744122243    12.000000000000
         C           -0.281083839767     2.534652487150     2.121177122243    12.000000000000
         C           -1.810126839767    -2.791306512850     0.428459122243    12.000000000000
         C           -0.971734839767    -3.139448512850    -1.775475877757    12.000000000000
         C           -1.753784839767    -3.566226512850    -0.716439877757    12.000000000000
         H           -1.122293839767    -1.062328512850     1.435130122243     1.007825032230
         H            0.297856160233    -1.651460512850    -2.562194877757     1.007825032230
         H            1.219438160233     3.979738487150     1.676546122243     1.007825032230
         O            2.112890160233     2.565290487150    -0.338600877757    15.994914619570
         H           -2.386754839767    -3.125071512850     1.278724122243     1.007825032230
         H           -0.894313839767    -3.742281512850    -2.668582877757     1.007825032230
         H           -2.296926839767    -4.497241512850    -0.777169877757     1.007825032230
         H           -1.423810839767     0.747918487150     1.866340122243     1.007825032230
         H           -0.726575839767     3.030510487150     2.961939122243     1.007825032230
         H            1.537414160233    -0.304374512850    -2.166000877757     1.007825032230

  Charge       = 0
  Multiplicity = 1
  Basis Set: 6-311+G*
    Blend: 6-311+G*
  Basis Set: (6-311+G* AUX)
    Blend: HEAVY-AUG-CC-PVTZ-JKFIT

    Orbital Energies [Eh]
    ---------------------

    Doubly Occupied:

       1A    -19.205538     2A    -14.462823     3A    -14.446616
       4A    -10.374537     5A    -10.362817     6A    -10.319603
       7A    -10.313365     8A    -10.309139     9A    -10.304045
      10A    -10.303917    11A    -10.303223    12A    -10.301670
      13A    -10.281840    14A    -10.275307    15A     -1.139913
      16A     -1.059500    17A     -1.046861    18A     -0.980884
      19A     -0.899037    20A     -0.876513    21A     -0.867885
      22A     -0.820306    23A     -0.768533    24A     -0.728622
      25A     -0.713824    26A     -0.690581    27A     -0.665884
      28A     -0.637122    29A     -0.604009    30A     -0.596205
      31A     -0.580368    32A     -0.562783    33A     -0.544417
      34A     -0.532083    35A     -0.529827    36A     -0.515766
      37A     -0.508803    38A     -0.499295    39A     -0.490273
      40A     -0.478803    41A     -0.453989    42A     -0.448209
      43A     -0.437487    44A     -0.412738    45A     -0.351281
      46A     -0.347797    47A     -0.338608    48A     -0.333490
      49A     -0.258955

  @DF-RKS Final Energy:  -609.84744238613166

   => Energetics <=

    Nuclear Repulsion Energy =            818.9096431098882931
    One-Electron Energy =               -2450.6198172161775801
    Two-Electron Energy =                1081.2130714678671666
    DFT Exchange-Correlation Energy =     -59.3365313817926321
    Empirical Dispersion Energy =          -0.0138083659170200
    VV10 Nonlocal Energy =                  0.0000000000000000
    Total Energy =                       -609.8474423861317746
 Dipole X            :          2.5970842           -3.5345802           -0.9374960
 Dipole Y            :          4.3933667           -5.1985823           -0.8052155
 Dipole Z            :          0.3081570           -0.1984780            0.1096790
 Magnitude           :                                                    1.2406854
*** Psi4 exiting successfully. Buy a developer a beer!
