   * xtb version 6.5.0 (97a52f5) compiled by 'conda@d2599ee0d4f4' on 2022-05-15
          program call               : /home/liuchw/anaconda3/envs/xtbenv/bin/xtb --gfn 2 --chrg 0 --uhf 0 7_11_Index_0-opt-2-3-013_preQMOPTprefit_xyzformat.xyz --opt --input xtb-opt-2-3-013_constr.txt

   ID    Z sym.   atoms
    1    7 N      1, 9
    2    6 C      2-6, 8, 10-14
    3    1 H      7, 15-17, 19-24
    4    8 O      18
constraining angle 1 2 3 4 to   13.2707059°, actual value:   13.2707059°
constraining angle 24 1 2 3 to   28.0714764°, actual value:   28.0714764°
constraining angle 24 1 2 5 to  203.9693266°, actual value: -156.0306734°
constraining angle 7 1 2 3 to  173.0506452°, actual value:  173.0506452°
constraining angle 7 1 2 5 to  348.9484953°, actual value:  -11.0515047°
constraining angle 1 2 5 8 to  188.1054592°, actual value: -171.8945408°

          :  Hamiltonian                  GFN2-xTB          :
 * total energy  :   -38.5384783 Eh     change       -0.8598064E-09 Eh
 * total energy  :   -38.5483279 Eh     change       -0.9849681E-02 Eh
 * total energy  :   -38.5476703 Eh     change        0.6576094E-03 Eh
 * total energy  :   -38.5493842 Eh     change       -0.1713873E-02 Eh
 * total energy  :   -38.5497844 Eh     change       -0.4002168E-03 Eh
 * total energy  :   -38.5498715 Eh     change       -0.8707955E-04 Eh
 * total energy  :   -38.5498989 Eh     change       -0.2735400E-04 Eh
 * total energy  :   -38.5499193 Eh     change       -0.2040546E-04 Eh
 * total energy  :   -38.5499286 Eh     change       -0.9357644E-05 Eh
 * total energy  :   -38.5499311 Eh     change       -0.2462083E-05 Eh
 * total energy  :   -38.5499326 Eh     change       -0.1514263E-05 Eh
   *** GEOMETRY OPTIMIZATION CONVERGED AFTER 11 ITERATIONS ***

 final structure:
================
24
 xtb: 6.5.0 (97a52f5)
N            1.25107595041293        0.34584571869377       -1.59971601109260
C            0.42775697088582        0.10422852956950       -0.55284079009049
C           -0.30380400355438       -1.16991386492639       -0.54949207148415
C            0.06143697433373       -2.19186679946688       -1.43198105002608
C            0.40706472260571        1.03343964095075        0.47121995203688
C           -1.49125347984139       -1.32795548989644        0.16891445757280
H            1.64643616011965        1.28914838380552       -1.60700608834752
C           -0.20380840035751        1.04526766788543        1.77437004213526
N            0.68961666897663        3.06289027337210        1.42867716613315
C            1.00645731691047        2.35856285997387        0.30158675625769
C           -0.00427452777794        2.26320953132538        2.31693130454377
C           -2.22398298977598       -2.49666020346880        0.08434429729049
C           -0.67031498737851       -3.36061819102167       -1.51262720945124
C           -1.81383726367044       -3.52363669715651       -0.74894891944283
H           -1.86492639063665       -0.51587356593295        0.76878905176137
H            0.96952159591394       -2.10655023973166       -2.01070515864757
H            0.98775227780057        4.00776519682298        1.60286740969587
O            1.64333031611552        2.81446539765168       -0.65051382408051
H           -3.13259817008073       -2.59902181924939        0.65947392842219
H           -0.35239045875266       -4.14467158773690       -2.18434283164124
H           -2.38775140496752       -4.43577048868894       -0.81483966741653
H           -0.66151913554574        0.21481857075363        2.27225118000095
H           -0.30121860776142        2.64389557730612        3.27513988647560
H            1.04561883602540       -0.07358339083355       -2.49071282060473

          :  Hamiltonian                  GFN2-xTB          :
         :: total energy             -38.549932600173 Eh    ::
         :: gradient norm              0.000961808973 Eh/a0 ::
         :: HOMO-LUMO gap              1.935346592375 eV    ::
         :: SCC energy               -39.177495531465 Eh    ::
         :: -> dispersion             -0.023779858534 Eh    ::
         :: repulsion energy           0.627526896231 Eh    ::

    * Orbital Energies and Occupations

         #    Occupation            Energy/Eh            Energy/eV
      -------------------------------------------------------------
         1        2.0000           -0.6797592             -18.4972
       ...           ...                  ...                  ...
        23        2.0000           -0.4829779             -13.1425
        24        2.0000           -0.4751586             -12.9297
        25        2.0000           -0.4725016             -12.8574
        26        2.0000           -0.4660970             -12.6831
        27        2.0000           -0.4539321             -12.3521
        28        2.0000           -0.4519193             -12.2974
        29        2.0000           -0.4369949             -11.8912
        30        2.0000           -0.4286708             -11.6647
        31        2.0000           -0.4137825             -11.2596
        32        2.0000           -0.4115079             -11.1977
        33        2.0000           -0.3963774             -10.7860
        34        2.0000           -0.3784313             -10.2976
        35        2.0000           -0.3461075              -9.4181 (HOMO)
        36                         -0.2749848              -7.4827 (LUMO)
        37                         -0.2317919              -6.3074
        38                         -0.2100496              -5.7157
        39                         -0.1664056              -4.5281
        40                         -0.1198667              -3.2617
        41                         -0.0821068              -2.2342
        42                          0.0322736               0.8782
        43                          0.0410554               1.1172
        44                          0.0923894               2.5140
        45                          0.1143693               3.1121
        46                          0.1343005               3.6545
       ...                                ...                  ...
        66                          0.7345373              19.9878
      -------------------------------------------------------------
                  HL-Gap            0.0711227 Eh            1.9353 eV

     #   Z          covCN         q      C6AA      α(0)
     1   7 N        2.650    -0.251    26.525     7.649
     2   6 C        2.884     0.092    25.955     8.352
     3   6 C        2.972     0.005    27.919     8.667
     4   6 C        2.926    -0.034    28.845     8.808
     5   6 C        3.081    -0.073    29.716     8.937
     6   6 C        2.925    -0.032    28.797     8.800
     7   1 H        0.859     0.231     0.962     1.537
     8   6 C        2.988    -0.072    29.790     8.953
     9   7 N        2.774    -0.146    24.149     7.299
    10   6 C        2.881     0.255    22.724     7.815
    11   6 C        2.987     0.000    28.018     8.683
    12   6 C        2.918    -0.028    28.705     8.786
    13   6 C        2.918    -0.029    28.719     8.788
    14   6 C        2.919    -0.027    28.679     8.782
    15   1 H        0.926     0.049     2.337     2.390
    16   1 H        0.926     0.038     2.476     2.460
    17   1 H        0.860     0.169     1.279     1.771
    18   8 O        0.857    -0.488    23.519     6.502
    19   1 H        0.926     0.035     2.517     2.481
    20   1 H        0.926     0.034     2.534     2.489
    21   1 H        0.926     0.035     2.522     2.483
    22   1 H        0.926     0.033     2.537     2.491
    23   1 H        0.926     0.033     2.545     2.495
    24   1 H        0.860     0.171     1.264     1.761

Wiberg/Mayer (AO) data.
largest (>0.10) Wiberg bond orders for each atom

     #   Z sym  total        # sym  WBO       # sym  WBO       # sym  WBO
 ---------------------------------------------------------------------------
     1   7 N    3.391 --     2 C    1.285    24 H    0.943     7 H    0.879
     2   6 C    3.969 --     5 C    1.422     1 N    1.285     3 C    1.066
     3   6 C    3.988 --     6 C    1.376     4 C    1.373     2 C    1.066
                            14 C    0.102
     4   6 C    3.977 --    13 C    1.459     3 C    1.373    16 H    0.965
                            12 C    0.106
     5   6 C    3.968 --     2 C    1.422     8 C    1.171    10 C    1.079
     6   6 C    3.991 --    12 C    1.457     3 C    1.376    15 H    0.962
                            13 C    0.105
     7   1 H    0.946 --     1 N    0.879
     8   6 C    3.978 --    11 C    1.681     5 C    1.171    22 H    0.967
     9   7 N    3.514 --    10 C    1.179    11 C    1.131    17 H    0.942
                            18 O    0.138
    10   6 C    3.947 --    18 O    1.557     9 N    1.179     5 C    1.079
    11   6 C    3.938 --     8 C    1.681     9 N    1.131    23 H    0.970
    12   6 C    3.992 --     6 C    1.457    14 C    1.431    19 H    0.970
                             4 C    0.106
    13   6 C    3.992 --     4 C    1.459    14 C    1.429    20 H    0.971
                             6 C    0.105
    14   6 C    3.978 --    12 C    1.431    13 C    1.429    21 H    0.971
                             3 C    0.102
    15   1 H    0.998 --     6 C    0.962
    16   1 H    0.999 --     4 C    0.965
    17   1 H    0.971 --     9 N    0.942
    18   8 O    1.970 --    10 C    1.557     9 N    0.138
    19   1 H    0.998 --    12 C    0.970
    20   1 H    0.998 --    13 C    0.971
    21   1 H    0.998 --    14 C    0.971
    22   1 H    0.999 --     8 C    0.967
    23   1 H    0.998 --    11 C    0.970
    24   1 H    0.969 --     1 N    0.943
 ---------------------------------------------------------------------------

molecular dipole:
                 x           y           z       tot (Debye)
 q only:       -0.611      -0.953       0.030
   full:       -0.754      -0.770       0.129       2.759

           -------------------------------------------------
          | TOTAL ENERGY              -38.549932600173 Eh   |
          | GRADIENT NORM               0.000961808973 Eh/α |
          | HOMO-LUMO GAP               1.935346592375 eV   |
           -------------------------------------------------

 * finished run on 2023/11/18 at 08:42:36.336
