                               Psi4 1.6 release

  ==> Input File <==

--------------------------------------------------------------------------
molecule {
0 1
 C    0.857371   -0.739702   -0.169043
 C   -0.237581    0.095436    0.032216
 C   -1.599783   -0.457422    0.204973
 O   -1.603254   -1.666100    0.790530
 C   -0.073246    1.477958    0.003955
 O   -2.617544    0.105965   -0.109444
 C    2.110243   -0.191020   -0.371619
 C    2.275064    1.184940   -0.377084
 H    0.718791   -1.809849   -0.162626
 C    1.183654    2.018587   -0.188974
 H   -0.938409    2.108777    0.141049
 H    1.313863    3.090445   -0.199792
 H   -2.514615   -1.985534    0.881754
 H    2.961033   -0.837268   -0.529002
 H    3.256147    1.608922   -0.533356
}
memory 20GB
set_num_threads(5)
psi4_io.set_default_path("/scratch/liuchw/Psi4-13_34_Index_0-farH_in17")
set freeze_core True
E, wfn = energy('wb97x-d/6-311+G*',return_wfn=True)
oeprop(wfn,"WIBERG_LOWDIN_INDICES")
clean()
--------------------------------------------------------------------------

    Molecular point group: c1

    Geometry (in Angstrom), charge = 0, multiplicity = 1:

       Center              X                  Y                   Z               Mass
    ------------   -----------------  -----------------  -----------------  -----------------
         C            0.926926215100    -0.886408708142    -0.169877846408    12.000000000000
         C           -0.168025784900    -0.051270708142     0.031381153592    12.000000000000
         C           -1.530227784900    -0.604128708142     0.204138153592    12.000000000000
         O           -1.533698784900    -1.812806708142     0.789695153592    15.994914619570
         C           -0.003690784900     1.331251291858     0.003120153592    12.000000000000
         O           -2.547988784900    -0.040741708142    -0.110278846408    15.994914619570
         C            2.179798215100    -0.337726708142    -0.372453846408    12.000000000000
         C            2.344619215100     1.038233291858    -0.377918846408    12.000000000000
         H            0.788346215100    -1.956555708142    -0.163460846408     1.007825032230
         C            1.253209215100     1.871880291858    -0.189808846408    12.000000000000
         H           -0.868853784900     1.962070291858     0.140214153592     1.007825032230
         H            1.383418215100     2.943738291858    -0.200626846408     1.007825032230
         H           -2.445059784900    -2.132240708142     0.880919153592     1.007825032230
         H            3.030588215100    -0.983974708142    -0.529836846408     1.007825032230
         H            3.325702215100     1.462215291858    -0.534190846408     1.007825032230

  Charge       = 0
  Multiplicity = 1
  Basis Set: 6-311+G*
    Blend: 6-311+G*
  Basis Set: (6-311+G* AUX)
    Blend: HEAVY-AUG-CC-PVTZ-JKFIT

    Orbital Energies [Eh]
    ---------------------

    Doubly Occupied:

       1A    -19.305036     2A    -19.242243     3A    -10.428875
       4A    -10.312595     5A    -10.304897     6A    -10.304006
       7A    -10.303656     8A    -10.300549     9A    -10.300278
      10A     -1.227045    11A     -1.131221    12A     -0.982797
      13A     -0.883999    14A     -0.866706    15A     -0.773951
      16A     -0.721574    17A     -0.696669    18A     -0.641328
      19A     -0.593244    20A     -0.578383    21A     -0.565159
      22A     -0.548128    23A     -0.537638    24A     -0.525638
      25A     -0.497606    26A     -0.474442    27A     -0.455737
      28A     -0.442098    29A     -0.418059    30A     -0.377021
      31A     -0.347834    32A     -0.345405

  @DF-RKS Final Energy:  -420.78172164531310

   => Energetics <=

    Nuclear Repulsion Energy =            406.8445097366045502
    One-Electron Energy =               -1377.3548961287638122
    Two-Electron Energy =                 589.4819975374497290
    DFT Exchange-Correlation Energy =     -39.7470756384238229
    Empirical Dispersion Energy =          -0.0062571521797435
    VV10 Nonlocal Energy =                  0.0000000000000000
    Total Energy =                       -420.7817216453130982
 Dipole X            :         -4.1305092            4.8684859            0.7379766
 Dipole Y            :         -1.4700986            1.2053536           -0.2647450
 Dipole Z            :          0.5224889           -0.3782687            0.1442202
 Magnitude           :                                                    0.7971818
*** Psi4 exiting successfully. Buy a developer a beer!
