   * xtb version 6.5.0 (97a52f5) compiled by 'conda@d2599ee0d4f4' on 2022-05-15
          program call               : /home/liuchw/anaconda3/envs/xtbenv/bin/xtb --gfn 2 --chrg 0 --uhf 0 13_34_Index_0-opt-2-3-151_preQMOPTprefit_xyzformat.xyz --opt --input xtb-opt-2-3-151_constr.txt

   ID    Z sym.   atoms
    1    6 C      1-3, 5, 7, 8, 10
    2    8 O      4, 6
    3    1 H      9, 11-15
constraining angle 1 2 3 4 to  150.9865266°, actual value:  150.9865266°
constraining angle 2 3 4 13 to  180.0013535°, actual value: -179.9986465°

          :  Hamiltonian                  GFN2-xTB          :
 * total energy  :   -26.1661954 Eh     change       -0.3424105E-10 Eh
 * total energy  :   -26.1579194 Eh     change        0.8275966E-02 Eh
 * total energy  :   -26.1581273 Eh     change       -0.2079406E-03 Eh
 * total energy  :   -26.1702424 Eh     change       -0.1211508E-01 Eh
 * total energy  :   -26.1712844 Eh     change       -0.1041940E-02 Eh
 * total energy  :   -26.1714804 Eh     change       -0.1960235E-03 Eh
 * total energy  :   -26.1716520 Eh     change       -0.1716600E-03 Eh
 * total energy  :   -26.1717156 Eh     change       -0.6355036E-04 Eh
 * total energy  :   -26.1717552 Eh     change       -0.3965529E-04 Eh
 * total energy  :   -26.1717924 Eh     change       -0.3712791E-04 Eh
 * total energy  :   -26.1719006 Eh     change       -0.5281771E-05 Eh
 * total energy  :   -26.1719050 Eh     change       -0.4404207E-05 Eh
 * total energy  :   -26.1719077 Eh     change       -0.2718783E-05 Eh
 * total energy  :   -26.1719133 Eh     change       -0.5645705E-05 Eh
 * total energy  :   -26.1719164 Eh     change       -0.3065888E-05 Eh
 * total energy  :   -26.1719228 Eh     change       -0.6370646E-05 Eh
 * total energy  :   -26.1719368 Eh     change       -0.1401398E-04 Eh
 * total energy  :   -26.1719436 Eh     change       -0.6769963E-05 Eh
 * total energy  :   -26.1719444 Eh     change       -0.7990865E-06 Eh
   *** GEOMETRY OPTIMIZATION CONVERGED AFTER 24 ITERATIONS ***

 final structure:
================
15
 xtb: 6.5.0 (97a52f5)
C            0.91267333755478       -0.76315322798350       -0.53787564768494
C           -0.18091683107306       -0.05244375173559       -0.05006551613223
C           -1.46578658662805       -0.76390492494456        0.13321600607645
O           -2.21647786329643       -0.24232919599591        1.11697125976286
C           -0.04322931785297        1.29017853660152        0.28975350778985
O           -1.81487565778573       -1.73177011433303       -0.49456096754614
C            2.13136966663018       -0.13076433739817       -0.69386242567252
C            2.26335815017728        1.20974153438887       -0.36680872409451
H            0.78656682691790       -1.80474546436471       -0.79154429364319
C            1.17700445449837        1.91812958638248        0.12190262291293
H           -0.89365476002127        1.83216532834295        0.67345790738280
H            1.28380067655321        2.96221894309538        0.37627077859221
H           -3.04462480050904       -0.74101827476501        1.19770552206405
H            2.98073432632602       -0.68173202666527       -1.06925191930553
H            3.21579436850881        1.70356036937455       -0.49176810050207

          :  Hamiltonian                  GFN2-xTB          :
         :: total energy             -26.171944362574 Eh    ::
         :: gradient norm              0.000277937684 Eh/a0 ::
         :: HOMO-LUMO gap              3.901249166375 eV    ::
         :: SCC energy               -26.552851390531 Eh    ::
         :: -> dispersion             -0.011771248093 Eh    ::
         :: repulsion energy           0.380889180668 Eh    ::

    * Orbital Energies and Occupations

         #    Occupation            Energy/Eh            Energy/eV
      -------------------------------------------------------------
         1        2.0000           -0.7439802             -20.2447
       ...           ...                  ...                  ...
        11        2.0000           -0.5631233             -15.3234
        12        2.0000           -0.5316980             -14.4682
        13        2.0000           -0.5090731             -13.8526
        14        2.0000           -0.5040929             -13.7171
        15        2.0000           -0.4930849             -13.4175
        16        2.0000           -0.4919352             -13.3862
        17        2.0000           -0.4891934             -13.3116
        18        2.0000           -0.4751312             -12.9290
        19        2.0000           -0.4515667             -12.2878
        20        2.0000           -0.4353078             -11.8453
        21        2.0000           -0.4217304             -11.4759
        22        2.0000           -0.4197914             -11.4231
        23        2.0000           -0.4160674             -11.3218 (HOMO)
        24                         -0.2726992              -7.4205 (LUMO)
        25                         -0.2372432              -6.4557
        26                         -0.1972095              -5.3663
        27                         -0.0987996              -2.6885
        28                          0.0579462               1.5768
        29                          0.1177001               3.2028
        30                          0.1245063               3.3880
        31                          0.1590307               4.3274
        32                          0.1658355               4.5126
        33                          0.1813852               4.9357
        34                          0.1909527               5.1961
       ...                                ...                  ...
        42                          0.6815194              18.5451
      -------------------------------------------------------------
                  HL-Gap            0.1433683 Eh            3.9012 eV

     #   Z          covCN         q      C6AA      α(0)
     1   6 C        2.924    -0.019    28.479     8.752
     2   6 C        2.974    -0.015    28.375     8.738
     3   6 C        2.697     0.356    20.957     7.493
     4   8 O        1.660    -0.380    20.465     6.107
     5   6 C        2.921    -0.020    28.510     8.756
     6   8 O        0.856    -0.415    21.980     6.286
     7   6 C        2.919    -0.025    28.628     8.774
     8   6 C        2.920    -0.021    28.542     8.761
     9   1 H        0.926     0.057     2.229     2.335
    10   6 C        2.919    -0.026    28.652     8.778
    11   1 H        0.926     0.054     2.276     2.359
    12   1 H        0.926     0.042     2.428     2.437
    13   1 H        0.804     0.328     0.643     1.259
    14   1 H        0.926     0.043     2.408     2.427
    15   1 H        0.926     0.042     2.428     2.437

Wiberg/Mayer (AO) data.
largest (>0.10) Wiberg bond orders for each atom

     #   Z sym  total        # sym  WBO       # sym  WBO       # sym  WBO
 ---------------------------------------------------------------------------
     1   6 C    3.989 --     7 C    1.453     2 C    1.388     9 H    0.967
                            10 C    0.108
     2   6 C    3.988 --     5 C    1.391     1 C    1.388     3 C    1.003
                             8 C    0.104
     3   6 C    3.914 --     6 O    1.741     4 O    1.119     2 C    1.003
     4   8 O    2.194 --     3 C    1.119    13 H    0.868     6 O    0.170
     5   6 C    3.990 --    10 C    1.452     2 C    1.391    11 H    0.968
                             7 C    0.109
     6   8 O    2.032 --     3 C    1.741     4 O    0.170
     7   6 C    3.992 --     1 C    1.453     8 C    1.434    14 H    0.970
                             5 C    0.109
     8   6 C    3.992 --    10 C    1.435     7 C    1.434    15 H    0.971
                             2 C    0.104
     9   1 H    0.997 --     1 C    0.967
    10   6 C    3.992 --     5 C    1.452     8 C    1.435    12 H    0.970
                             1 C    0.108
    11   1 H    0.997 --     5 C    0.968
    12   1 H    0.998 --    10 C    0.970
    13   1 H    0.892 --     4 O    0.868
    14   1 H    0.998 --     7 C    0.970
    15   1 H    0.998 --     8 C    0.971
 ---------------------------------------------------------------------------

molecular dipole:
                 x           y           z       tot (Debye)
 q only:        0.457       0.701       0.355
   full:        0.327       0.698       0.422       2.233

           -------------------------------------------------
          | TOTAL ENERGY              -26.171944362574 Eh   |
          | GRADIENT NORM               0.000277937684 Eh/α |
          | HOMO-LUMO GAP               3.901249166375 eV   |
           -------------------------------------------------

 * finished run on 2023/11/18 at 08:14:45.865
