   * xtb version 6.5.0 (97a52f5) compiled by 'conda@d2599ee0d4f4' on 2022-05-15
          program call               : /home/liuchw/anaconda3/envs/xtbenv/bin/xtb --gfn 2 --chrg 0 --uhf 0 13_34_Index_0-opt-2-3-211_preQMOPTprefit_xyzformat.xyz --opt --input xtb-opt-2-3-211_constr.txt

   ID    Z sym.   atoms
    1    6 C      1-3, 5, 7, 8, 10
    2    8 O      4, 6
    3    1 H      9, 11-15
constraining angle 1 2 3 4 to  211.0142488°, actual value: -148.9857512°
constraining angle 2 3 4 13 to  179.9977650°, actual value:  179.9977650°

          :  Hamiltonian                  GFN2-xTB          :
 * total energy  :   -26.1660440 Eh     change       -0.1458424E-09 Eh
 * total energy  :   -26.1713234 Eh     change       -0.5279374E-02 Eh
 * total energy  :   -26.1716899 Eh     change       -0.3664814E-03 Eh
 * total energy  :   -26.1717570 Eh     change       -0.6708356E-04 Eh
 * total energy  :   -26.1717798 Eh     change       -0.2277940E-04 Eh
 * total energy  :   -26.1717820 Eh     change       -0.2217447E-05 Eh
 * total energy  :   -26.1717828 Eh     change       -0.8436735E-06 Eh
   *** GEOMETRY OPTIMIZATION CONVERGED AFTER 7 ITERATIONS ***

 final structure:
================
15
 xtb: 6.5.0 (97a52f5)
C            0.89897459187658       -0.75132273335014       -0.57361824749215
C           -0.12757417525925       -0.10008661480194        0.10526699907826
C           -1.39132550628600       -0.83074246718542        0.35253798823513
O           -2.46351757150076       -0.02257642702815        0.37860939413481
C            0.02997313731246        1.22500511062526        0.50040841546652
O           -1.48473720571878       -2.02493682327725        0.48429693964217
C            2.07810694573909       -0.08345140724918       -0.84440886059184
C            2.23813238849641        1.23216040749028       -0.43859665624958
H            0.75564627990854       -1.77786655251093       -0.87523923821288
C            1.21641671541707        1.88319128271891        0.23450778768275
H           -0.77314988042407        1.72493641136554        1.01952891087800
H            1.34459734508114        2.90844708443962        0.54868788207530
H           -3.26502517998037       -0.54371828850405        0.54270367066150
H            2.87385003608159       -0.58702195637715       -1.37275403681595
H            3.16136806925634        1.75211697364460       -0.64838895849206

          :  Hamiltonian                  GFN2-xTB          :
         :: total energy             -26.171782823828 Eh    ::
         :: gradient norm              0.000334417106 Eh/a0 ::
         :: HOMO-LUMO gap              3.914554287376 eV    ::
         :: SCC energy               -26.552689755521 Eh    ::
         :: -> dispersion             -0.011773009466 Eh    ::
         :: repulsion energy           0.380888587896 Eh    ::

    * Orbital Energies and Occupations

         #    Occupation            Energy/Eh            Energy/eV
      -------------------------------------------------------------
         1        2.0000           -0.7441438             -20.2492
       ...           ...                  ...                  ...
        11        2.0000           -0.5632014             -15.3255
        12        2.0000           -0.5318364             -14.4720
        13        2.0000           -0.5090284             -13.8514
        14        2.0000           -0.5041360             -13.7182
        15        2.0000           -0.4931427             -13.4191
        16        2.0000           -0.4918902             -13.3850
        17        2.0000           -0.4893130             -13.3149
        18        2.0000           -0.4753062             -12.9337
        19        2.0000           -0.4516917             -12.2912
        20        2.0000           -0.4353950             -11.8477
        21        2.0000           -0.4217315             -11.4759
        22        2.0000           -0.4197653             -11.4224
        23        2.0000           -0.4159907             -11.3197 (HOMO)
        24                         -0.2721335              -7.4051 (LUMO)
        25                         -0.2372434              -6.4557
        26                         -0.1980433              -5.3890
        27                         -0.0993565              -2.7036
        28                          0.0579946               1.5781
        29                          0.1174999               3.1973
        30                          0.1245538               3.3893
        31                          0.1591117               4.3296
        32                          0.1656017               4.5063
        33                          0.1813427               4.9346
        34                          0.1909206               5.1952
       ...                                ...                  ...
        42                          0.6808842              18.5278
      -------------------------------------------------------------
                  HL-Gap            0.1438572 Eh            3.9146 eV

     #   Z          covCN         q      C6AA      α(0)
     1   6 C        2.924    -0.019    28.480     8.752
     2   6 C        2.974    -0.015    28.370     8.737
     3   6 C        2.697     0.356    20.953     7.492
     4   8 O        1.660    -0.380    20.462     6.107
     5   6 C        2.921    -0.020    28.509     8.756
     6   8 O        0.856    -0.414    21.969     6.284
     7   6 C        2.919    -0.025    28.628     8.774
     8   6 C        2.920    -0.022    28.545     8.761
     9   1 H        0.926     0.057     2.236     2.338
    10   6 C        2.919    -0.026    28.651     8.778
    11   1 H        0.926     0.053     2.282     2.362
    12   1 H        0.926     0.042     2.427     2.436
    13   1 H        0.804     0.328     0.643     1.259
    14   1 H        0.926     0.043     2.408     2.426
    15   1 H        0.926     0.042     2.429     2.437

Wiberg/Mayer (AO) data.
largest (>0.10) Wiberg bond orders for each atom

     #   Z sym  total        # sym  WBO       # sym  WBO       # sym  WBO
 ---------------------------------------------------------------------------
     1   6 C    3.989 --     7 C    1.452     2 C    1.388     9 H    0.967
                            10 C    0.109
     2   6 C    3.988 --     5 C    1.391     1 C    1.388     3 C    1.002
                             8 C    0.104
     3   6 C    3.914 --     6 O    1.743     4 O    1.119     2 C    1.002
     4   8 O    2.194 --     3 C    1.119    13 H    0.868     6 O    0.171
     5   6 C    3.990 --    10 C    1.452     2 C    1.391    11 H    0.968
                             7 C    0.109
     6   8 O    2.033 --     3 C    1.743     4 O    0.171
     7   6 C    3.992 --     1 C    1.452     8 C    1.434    14 H    0.970
                             5 C    0.109
     8   6 C    3.992 --    10 C    1.435     7 C    1.434    15 H    0.971
                             2 C    0.104
     9   1 H    0.997 --     1 C    0.967
    10   6 C    3.992 --     5 C    1.452     8 C    1.435    12 H    0.970
                             1 C    0.109
    11   1 H    0.997 --     5 C    0.968
    12   1 H    0.998 --    10 C    0.970
    13   1 H    0.892 --     4 O    0.868
    14   1 H    0.998 --     7 C    0.970
    15   1 H    0.998 --     8 C    0.971
 ---------------------------------------------------------------------------

molecular dipole:
                 x           y           z       tot (Debye)
 q only:        0.284       0.850      -0.144
   full:        0.139       0.858      -0.117       2.230

           -------------------------------------------------
          | TOTAL ENERGY              -26.171782823828 Eh   |
          | GRADIENT NORM               0.000334417106 Eh/α |
          | HOMO-LUMO GAP               3.914554287376 eV   |
           -------------------------------------------------

 * finished run on 2023/11/18 at 08:13:16.521
