   * xtb version 6.5.0 (97a52f5) compiled by 'conda@d2599ee0d4f4' on 2022-05-15
          program call               : /home/liuchw/anaconda3/envs/xtbenv/bin/xtb --gfn 2 --chrg 0 --uhf 0 ethanol-opt-2-3-301_preQMOPTprefit_xyzformat.xyz --opt --input xtb-opt-2-3-301_constr.txt

   ID    Z sym.   atoms
    1    8 O      1
    2    6 C      2, 3
    3    1 H      4-9
constraining angle 4 2 3 6 to  300.9747000°, actual value:  -59.0253206°
constraining angle 9 1 2 4 to   59.6704000°, actual value:   59.6703721°

          :  Hamiltonian                  GFN2-xTB          :
 * total energy  :   -11.3912378 Eh     change       -0.2598100E-10 Eh
 * total energy  :   -11.3917943 Eh     change       -0.5565123E-03 Eh
 * total energy  :   -11.3918575 Eh     change       -0.6319835E-04 Eh
 * total energy  :   -11.3918649 Eh     change       -0.7418608E-05 Eh
 * total energy  :   -11.3918666 Eh     change       -0.1679264E-05 Eh
 * total energy  :   -11.3918671 Eh     change       -0.4839712E-06 Eh
   *** GEOMETRY OPTIMIZATION CONVERGED AFTER 6 ITERATIONS ***

 final structure:
================
9
 xtb: 6.5.0 (97a52f5)
O            1.01084464133177       -0.67467036625051        0.12520914946684
C            0.19094439522502        0.47558129737122        0.14579238071490
C           -1.25601305610704        0.03211779197568        0.29545317901369
H            0.31178725505169        1.04687882133316       -0.78660340730324
H            0.47038395417307        1.12798077802029        0.98638790029979
H           -1.91251802756542        0.89751729182797        0.30747243881862
H           -1.37577890431755       -0.52432713629054        1.22077300532878
H           -1.52836482277384       -0.61528977679686       -0.53331932024445
H            1.93044756498229       -0.40819969119041        0.03035566390506

          :  Hamiltonian                  GFN2-xTB          :
         :: total energy             -11.391867074493 Eh    ::
         :: gradient norm              0.000177168136 Eh/a0 ::
         :: HOMO-LUMO gap             12.552981571885 eV    ::
         :: SCC energy               -11.512928593195 Eh    ::
         :: -> dispersion             -0.002776500373 Eh    ::
         :: repulsion energy           0.121061063949 Eh    ::

    * Orbital Energies and Occupations

         #    Occupation            Energy/Eh            Energy/eV
      -------------------------------------------------------------
         1        2.0000           -0.6852051             -18.6454
         2        2.0000           -0.6262618             -17.0414
         3        2.0000           -0.5795072             -15.7692
         4        2.0000           -0.5670816             -15.4311
         5        2.0000           -0.5305902             -14.4381
         6        2.0000           -0.5061220             -13.7723
         7        2.0000           -0.4657599             -12.6740
         8        2.0000           -0.4595372             -12.5046
         9        2.0000           -0.4503562             -12.2548
        10        2.0000           -0.4079461             -11.1008 (HOMO)
        11                          0.0533675               1.4522 (LUMO)
        12                          0.1262248               3.4348
        13                          0.1321213               3.5952
        14                          0.1527826               4.1574
        15                          0.1818711               4.9490
        16                          0.2123957               5.7796
        17                          0.2643978               7.1946
        18                          0.2709082               7.3718
      -------------------------------------------------------------
                  HL-Gap            0.4613136 Eh           12.5530 eV

     #   Z          covCN         q      C6AA      α(0)
     1   8 O        1.656    -0.442    21.674     6.285
     2   6 C        3.672     0.092    19.280     6.294
     3   6 C        3.751    -0.111    22.677     6.791
     4   1 H        0.923     0.015     2.817     2.625
     5   1 H        0.923     0.015     2.817     2.625
     6   1 H        0.925     0.039     2.461     2.453
     7   1 H        0.925     0.054     2.265     2.354
     8   1 H        0.925     0.055     2.262     2.352
     9   1 H        0.805     0.283     0.776     1.384

Wiberg/Mayer (AO) data.
largest (>0.10) Wiberg bond orders for each atom

     #   Z sym  total        # sym  WBO       # sym  WBO       # sym  WBO
 ---------------------------------------------------------------------------
     1   8 O    1.951 --     2 C    0.994     9 H    0.907
     2   6 C    3.958 --     3 C    1.018     1 O    0.994     5 H    0.973
                             4 H    0.973
     3   6 C    3.994 --     2 C    1.018     6 H    0.986     7 H    0.986
                             8 H    0.986
     4   1 H    1.000 --     2 C    0.973
     5   1 H    1.000 --     2 C    0.973
     6   1 H    0.998 --     3 C    0.986
     7   1 H    0.997 --     3 C    0.986
     8   1 H    0.997 --     3 C    0.986
     9   1 H    0.920 --     1 O    0.907
 ---------------------------------------------------------------------------

molecular dipole:
                 x           y           z       tot (Debye)
 q only:        0.064       0.430      -0.026
   full:        0.226       0.637      -0.050       1.724

           -------------------------------------------------
          | TOTAL ENERGY              -11.391867074493 Eh   |
          | GRADIENT NORM               0.000177168136 Eh/α |
          | HOMO-LUMO GAP              12.552981571885 eV   |
           -------------------------------------------------

 * finished run on 2025/02/19 at 10:43:57.289
