                               Psi4 1.9.1 release

  ==> Input File <==

--------------------------------------------------------------------------
molecule {
0 1
 O    0.990192   -0.668360   -0.060764
 C    0.198800    0.472543    0.193805
 C   -1.258333    0.037142    0.308381
 H    0.309251    1.211917   -0.613342
 H    0.522527    0.958926    1.126418
 H   -1.923967    0.834208   -0.008872
 H   -1.500538   -0.266002    1.321756
 H   -1.410396   -0.814904   -0.350211
 H    1.914198   -0.407879   -0.125651
}
memory 4GB
set_num_threads(2)
psi4_io.set_default_path("/scratch/liuchw/Psi4-ethanol")
set freeze_core True
E, wfn = energy('wb97x-d/6-311+G*',return_wfn=True)
oeprop(wfn,"WIBERG_LOWDIN_INDICES")
clean()
--------------------------------------------------------------------------

    Molecular point group: c1

    Geometry (in Angstrom), charge = 0, multiplicity = 1:

       Center              X                  Y                   Z               Mass
    ------------   -----------------  -----------------  -----------------  -----------------
         O            0.968073660622    -0.602202594839    -0.200093273358    15.994914619570
         C            0.176681660622     0.538700405161     0.054475726642    12.000000000000
         C           -1.280451339378     0.103299405161     0.169051726642    12.000000000000
         H            0.287132660622     1.278074405161    -0.752671273358     1.007825032230
         H            0.500408660622     1.025083405161     0.987088726642     1.007825032230
         H           -1.946085339378     0.900365405161    -0.148201273358     1.007825032230
         H           -1.522656339378    -0.199844594839     1.182426726642     1.007825032230
         H           -1.432514339378    -0.748746594839    -0.489540273358     1.007825032230
         H            1.892079660622    -0.341721594839    -0.264980273358     1.007825032230

  Charge       = 0
  Multiplicity = 1
  Basis Set: 6-311+G*
    Blend: 6-311+G*
  Basis Set: (6-311+G* AUX)
    Blend: HEAVY-AUG-CC-PVTZ-JKFIT

    Orbital Energies [Eh]
    ---------------------

    Doubly Occupied:

       1A    -19.246512     2A    -10.328620     3A    -10.266639
       4A     -1.130142     5A     -0.849366     6A     -0.709828
       7A     -0.614997     8A     -0.557285     9A     -0.489925
      10A     -0.469245    11A     -0.454827    12A     -0.416806
      13A     -0.358241

  @DF-RKS Final Energy:  -155.02471455193640

   => Energetics <=

    Nuclear Repulsion Energy =             81.9088019906609759
    One-Electron Energy =                -372.0222831209264314
    Two-Electron Energy =                 149.9573514324536916
    DFT Exchange-Correlation Energy =     -14.8661947447931091
    Empirical Dispersion Energy =          -0.0023901093315463
    VV10 Nonlocal Energy =                  0.0000000000000000
    Total Energy =                       -155.0247145519363983
 Dipole X            :          2.3342920           -2.0780635            0.2562285
 Dipole Y            :         -1.1256033            1.7906828            0.6650795
 Dipole Z            :         -0.4237552            0.4810126            0.0572574
 Magnitude           :                                                    0.7150260
*** Psi4 exiting successfully. Buy a developer a beer!
