   * xtb version 6.5.0 (97a52f5) compiled by 'conda@d2599ee0d4f4' on 2022-05-15
          program call               : /home/liuchw/anaconda3/envs/xtbenv/bin/xtb --gfn 2 --chrg 0 --uhf 0 ethanol-opt-2-3-241_preQMOPTprefit_xyzformat.xyz --opt --input xtb-opt-2-3-241_constr.txt

   ID    Z sym.   atoms
    1    8 O      1
    2    6 C      2, 3
    3    1 H      4-9
constraining angle 4 2 3 6 to  240.9747000°, actual value: -119.0252913°
constraining angle 9 1 2 4 to   59.6693000°, actual value:   59.6693310°

          :  Hamiltonian                  GFN2-xTB          :
 * total energy  :   -11.3876721 Eh     change       -0.2830980E-10 Eh
 * total energy  :   -11.3885167 Eh     change       -0.8445948E-03 Eh
 * total energy  :   -11.3886024 Eh     change       -0.8569592E-04 Eh
 * total energy  :   -11.3886107 Eh     change       -0.8263160E-05 Eh
 * total energy  :   -11.3886110 Eh     change       -0.3479962E-06 Eh
 * total energy  :   -11.3886115 Eh     change       -0.4745826E-06 Eh
   *** GEOMETRY OPTIMIZATION CONVERGED AFTER 6 ITERATIONS ***

 final structure:
================
9
 xtb: 6.5.0 (97a52f5)
O            0.75056135561887        0.67570028417304       -0.79366045973741
C            0.26841553359413        0.08169313538155        0.39595746170352
C           -1.25989246472099        0.04275880434090        0.32421883927065
H            0.59928255696390        0.66792316936816        1.26496524079191
H            0.67634059458125       -0.93373641948178        0.49808245818112
H           -1.63423331699451       -0.97391302603291        0.39574799690377
H           -1.56142632437226        0.45419178716089       -0.63535775967063
H           -1.70969828891535        0.63885221764638        1.11208805890547
H            1.71238534424495        0.70411904744376       -0.77052083634840

          :  Hamiltonian                  GFN2-xTB          :
         :: total energy             -11.388611500054 Eh    ::
         :: gradient norm              0.000198966289 Eh/a0 ::
         :: HOMO-LUMO gap             12.406872219115 eV    ::
         :: SCC energy               -11.509019806569 Eh    ::
         :: -> dispersion             -0.002767532954 Eh    ::
         :: repulsion energy           0.120407808590 Eh    ::

    * Orbital Energies and Occupations

         #    Occupation            Energy/Eh            Energy/eV
      -------------------------------------------------------------
         1        2.0000           -0.6850006             -18.6398
         2        2.0000           -0.6251738             -17.0118
         3        2.0000           -0.5794849             -15.7686
         4        2.0000           -0.5670316             -15.4297
         5        2.0000           -0.5300765             -14.4241
         6        2.0000           -0.5043879             -13.7251
         7        2.0000           -0.4637156             -12.6183
         8        2.0000           -0.4604536             -12.5296
         9        2.0000           -0.4507025             -12.2642
        10        2.0000           -0.4062794             -11.0554 (HOMO)
        11                          0.0496647               1.3514 (LUMO)
        12                          0.1143725               3.1122
        13                          0.1335341               3.6336
        14                          0.1339259               3.6443
        15                          0.1879414               5.1141
        16                          0.1928263               5.2471
        17                          0.2865843               7.7984
        18                          0.2907234               7.9110
      -------------------------------------------------------------
                  HL-Gap            0.4559442 Eh           12.4069 eV

     #   Z          covCN         q      C6AA      α(0)
     1   8 O        1.655    -0.442    21.687     6.287
     2   6 C        3.671     0.091    19.297     6.297
     3   6 C        3.750    -0.114    22.745     6.802
     4   1 H        0.923     0.016     2.802     2.618
     5   1 H        0.923     0.015     2.804     2.619
     6   1 H        0.925     0.042     2.428     2.437
     7   1 H        0.925     0.069     2.092     2.262
     8   1 H        0.925     0.042     2.422     2.434
     9   1 H        0.805     0.281     0.781     1.388

Wiberg/Mayer (AO) data.
largest (>0.10) Wiberg bond orders for each atom

     #   Z sym  total        # sym  WBO       # sym  WBO       # sym  WBO
 ---------------------------------------------------------------------------
     1   8 O    1.951 --     2 C    0.993     9 H    0.907
     2   6 C    3.957 --     3 C    1.012     1 O    0.993     5 H    0.975
                             4 H    0.975
     3   6 C    3.993 --     2 C    1.012     8 H    0.990     6 H    0.990
                             7 H    0.982
     4   1 H    1.000 --     2 C    0.975
     5   1 H    1.000 --     2 C    0.975
     6   1 H    0.998 --     3 C    0.990
     7   1 H    0.995 --     3 C    0.982
     8   1 H    0.998 --     3 C    0.990
     9   1 H    0.921 --     1 O    0.907
 ---------------------------------------------------------------------------

molecular dipole:
                 x           y           z       tot (Debye)
 q only:        0.168      -0.160       0.341
   full:        0.384      -0.220       0.484       1.666

           -------------------------------------------------
          | TOTAL ENERGY              -11.388611500054 Eh   |
          | GRADIENT NORM               0.000198966289 Eh/α |
          | HOMO-LUMO GAP              12.406872219115 eV   |
           -------------------------------------------------

 * finished run on 2025/02/19 at 10:42:34.415
