   * xtb version 6.5.0 (97a52f5) compiled by 'conda@d2599ee0d4f4' on 2022-05-15
          program call               : /home/liuchw/anaconda3/envs/xtbenv/bin/xtb --gfn 2 --chrg 0 --uhf 0 ethanol-opt-2-3-121_preQMOPTprefit_xyzformat.xyz --opt --input xtb-opt-2-3-121_constr.txt

   ID    Z sym.   atoms
    1    8 O      1
    2    6 C      2, 3
    3    1 H      4-9
constraining angle 4 2 3 6 to  120.9734000°, actual value:  120.9733633°
constraining angle 9 1 2 4 to   59.6705000°, actual value:   59.6704707°

          :  Hamiltonian                  GFN2-xTB          :
 * total energy  :   -11.3876708 Eh     change       -0.3015543E-10 Eh
 * total energy  :   -11.3885254 Eh     change       -0.8545495E-03 Eh
 * total energy  :   -11.3885978 Eh     change       -0.7243308E-04 Eh
 * total energy  :   -11.3886062 Eh     change       -0.8435456E-05 Eh
 * total energy  :   -11.3886068 Eh     change       -0.5364381E-06 Eh
 * total energy  :   -11.3886073 Eh     change       -0.5883027E-06 Eh
   *** GEOMETRY OPTIMIZATION CONVERGED AFTER 6 ITERATIONS ***

 final structure:
================
9
 xtb: 6.5.0 (97a52f5)
O            0.83794804630494       -0.08603813708710       -0.81345586599382
C            0.24302052091496        0.30995322988056        0.40696121350035
C           -1.26052037139916        0.03868658604438        0.31517811796238
H            0.43232287809497        1.37814982935093        0.58434539576378
H            0.68712759604013       -0.25407957009382        1.23924727082244
H           -1.46462845224746       -0.39723931708592       -0.65898292524251
H           -1.83499737890766        0.95518768000020        0.40985108724189
H           -1.58521692328691       -0.65818901416062        1.08171340275355
H            1.78667808448617        0.07115671315138       -0.77333470680806

          :  Hamiltonian                  GFN2-xTB          :
         :: total energy             -11.388607345210 Eh    ::
         :: gradient norm              0.000238590245 Eh/a0 ::
         :: HOMO-LUMO gap             12.410052807211 eV    ::
         :: SCC energy               -11.509007028938 Eh    ::
         :: -> dispersion             -0.002767609812 Eh    ::
         :: repulsion energy           0.120399202606 Eh    ::

    * Orbital Energies and Occupations

         #    Occupation            Energy/Eh            Energy/eV
      -------------------------------------------------------------
         1        2.0000           -0.6850180             -18.6403
         2        2.0000           -0.6251788             -17.0120
         3        2.0000           -0.5794886             -15.7687
         4        2.0000           -0.5670639             -15.4306
         5        2.0000           -0.5300601             -14.4237
         6        2.0000           -0.5043978             -13.7254
         7        2.0000           -0.4636642             -12.6169
         8        2.0000           -0.4605320             -12.5317
         9        2.0000           -0.4507229             -12.2648
        10        2.0000           -0.4062572             -11.0548 (HOMO)
        11                          0.0498038               1.3552 (LUMO)
        12                          0.1143025               3.1103
        13                          0.1333000               3.6273
        14                          0.1338450               3.6421
        15                          0.1879856               5.1153
        16                          0.1929971               5.2517
        17                          0.2869145               7.8073
        18                          0.2903400               7.9006
      -------------------------------------------------------------
                  HL-Gap            0.4560610 Eh           12.4101 eV

     #   Z          covCN         q      C6AA      α(0)
     1   8 O        1.655    -0.442    21.686     6.286
     2   6 C        3.671     0.091    19.296     6.297
     3   6 C        3.750    -0.114    22.744     6.801
     4   1 H        0.923     0.015     2.803     2.618
     5   1 H        0.923     0.015     2.805     2.619
     6   1 H        0.925     0.069     2.092     2.262
     7   1 H        0.925     0.042     2.425     2.435
     8   1 H        0.925     0.042     2.426     2.436
     9   1 H        0.805     0.281     0.781     1.388

Wiberg/Mayer (AO) data.
largest (>0.10) Wiberg bond orders for each atom

     #   Z sym  total        # sym  WBO       # sym  WBO       # sym  WBO
 ---------------------------------------------------------------------------
     1   8 O    1.951 --     2 C    0.993     9 H    0.907
     2   6 C    3.957 --     3 C    1.012     1 O    0.993     5 H    0.975
                             4 H    0.975
     3   6 C    3.993 --     2 C    1.012     7 H    0.990     8 H    0.990
                             6 H    0.982
     4   1 H    1.000 --     2 C    0.975
     5   1 H    1.000 --     2 C    0.975
     6   1 H    0.995 --     3 C    0.982
     7   1 H    0.998 --     3 C    0.990
     8   1 H    0.998 --     3 C    0.990
     9   1 H    0.921 --     1 O    0.907
 ---------------------------------------------------------------------------

molecular dipole:
                 x           y           z       tot (Debye)
 q only:        0.132       0.159       0.356
   full:        0.331       0.250       0.508       1.667

           -------------------------------------------------
          | TOTAL ENERGY              -11.388607345210 Eh   |
          | GRADIENT NORM               0.000238590245 Eh/α |
          | HOMO-LUMO GAP              12.410052807211 eV   |
           -------------------------------------------------

 * finished run on 2025/02/19 at 10:41:27.289
