   * xtb version 6.5.0 (97a52f5) compiled by 'conda@d2599ee0d4f4' on 2022-05-15
          program call               : /home/liuchw/anaconda3/envs/xtbenv/bin/xtb --gfn 2 --chrg 0 --uhf 0 ethanol-opt-2-3-211_preQMOPTprefit_xyzformat.xyz --opt --input xtb-opt-2-3-211_constr.txt

   ID    Z sym.   atoms
    1    8 O      1
    2    6 C      2, 3
    3    1 H      4-9
constraining angle 4 2 3 6 to  210.9578000°, actual value: -149.0422247°
constraining angle 9 1 2 4 to   59.6691000°, actual value:   59.6691490°

          :  Hamiltonian                  GFN2-xTB          :
 * total energy  :   -11.3894524 Eh     change       -0.2733280E-10 Eh
 * total energy  :   -11.3900895 Eh     change       -0.6371006E-03 Eh
 * total energy  :   -11.3901658 Eh     change       -0.7629787E-04 Eh
 * total energy  :   -11.3901752 Eh     change       -0.9379153E-05 Eh
 * total energy  :   -11.3901755 Eh     change       -0.3205097E-06 Eh
 * total energy  :   -11.3901766 Eh     change       -0.1101627E-05 Eh
   *** GEOMETRY OPTIMIZATION CONVERGED AFTER 6 ITERATIONS ***

 final structure:
================
9
 xtb: 6.5.0 (97a52f5)
O            0.77080560901549        0.47903377831093       -0.86633410489204
C            0.26115500400535        0.14700549326402        0.40731693911024
C           -1.25778268274346        0.03882032238900        0.31070037744326
H            0.53924828305450        0.91000953908351        1.14976026949139
H            0.68612402986391       -0.80861120351773        0.74972126766772
H           -1.56054427888578       -0.97207008985979        0.05398819361700
H           -1.61131059012907        0.72412661179694       -0.45366189622405
H           -1.71613492803542        0.29940369895988        1.26107817450168
H            1.73017453385448        0.53986984957324       -0.82104824071522

          :  Hamiltonian                  GFN2-xTB          :
         :: total energy             -11.390176606035 Eh    ::
         :: gradient norm              0.000534464867 Eh/a0 ::
         :: HOMO-LUMO gap             12.528803307472 eV    ::
         :: SCC energy               -11.510820598042 Eh    ::
         :: -> dispersion             -0.002773864210 Eh    ::
         :: repulsion energy           0.120641291506 Eh    ::

    * Orbital Energies and Occupations

         #    Occupation            Energy/Eh            Energy/eV
      -------------------------------------------------------------
         1        2.0000           -0.6853997             -18.6507
         2        2.0000           -0.6258527             -17.0303
         3        2.0000           -0.5796090             -15.7720
         4        2.0000           -0.5676144             -15.4456
         5        2.0000           -0.5301588             -14.4264
         6        2.0000           -0.5055644             -13.7571
         7        2.0000           -0.4643448             -12.6355
         8        2.0000           -0.4609607             -12.5434
         9        2.0000           -0.4506014             -12.2615
        10        2.0000           -0.4068677             -11.0714 (HOMO)
        11                          0.0535574               1.4574 (LUMO)
        12                          0.1200834               3.2676
        13                          0.1327670               3.6128
        14                          0.1396339               3.7996
        15                          0.1853720               5.0442
        16                          0.2021451               5.5006
        17                          0.2748443               7.4789
        18                          0.2827442               7.6939
      -------------------------------------------------------------
                  HL-Gap            0.4604250 Eh           12.5288 eV

     #   Z          covCN         q      C6AA      α(0)
     1   8 O        1.656    -0.440    21.649     6.281
     2   6 C        3.671     0.093    19.276     6.293
     3   6 C        3.751    -0.112    22.706     6.796
     4   1 H        0.923     0.014     2.830     2.631
     5   1 H        0.923     0.014     2.826     2.629
     6   1 H        0.925     0.046     2.367     2.406
     7   1 H        0.925     0.065     2.146     2.291
     8   1 H        0.925     0.039     2.461     2.453
     9   1 H        0.805     0.282     0.778     1.385

Wiberg/Mayer (AO) data.
largest (>0.10) Wiberg bond orders for each atom

     #   Z sym  total        # sym  WBO       # sym  WBO       # sym  WBO
 ---------------------------------------------------------------------------
     1   8 O    1.953 --     2 C    0.995     9 H    0.906
     2   6 C    3.958 --     3 C    1.014     1 O    0.995     5 H    0.974
                             4 H    0.973
     3   6 C    3.994 --     2 C    1.014     6 H    0.989     8 H    0.988
                             7 H    0.984
     4   1 H    1.000 --     2 C    0.973
     5   1 H    1.000 --     2 C    0.974
     6   1 H    0.998 --     3 C    0.989
     7   1 H    0.996 --     3 C    0.984
     8   1 H    0.998 --     3 C    0.988
     9   1 H    0.920 --     1 O    0.906
 ---------------------------------------------------------------------------

molecular dipole:
                 x           y           z       tot (Debye)
 q only:        0.165      -0.066       0.381
   full:        0.376      -0.091       0.546       1.701

           -------------------------------------------------
          | TOTAL ENERGY              -11.390176606035 Eh   |
          | GRADIENT NORM               0.000534464867 Eh/α |
          | HOMO-LUMO GAP              12.528803307472 eV   |
           -------------------------------------------------

 * finished run on 2025/02/19 at 10:42:16.109
