   * xtb version 6.5.0 (97a52f5) compiled by 'conda@d2599ee0d4f4' on 2022-05-15
          program call               : /home/liuchw/anaconda3/envs/xtbenv/bin/xtb --gfn 2 --chrg 0 --uhf 0 ethanol-opt-2-3-151_preQMOPTprefit_xyzformat.xyz --opt --input xtb-opt-2-3-151_constr.txt

   ID    Z sym.   atoms
    1    8 O      1
    2    6 C      2, 3
    3    1 H      4-9
constraining angle 4 2 3 6 to  150.9939000°, actual value:  150.9939367°
constraining angle 9 1 2 4 to   59.6712000°, actual value:   59.6712350°

          :  Hamiltonian                  GFN2-xTB          :
 * total energy  :   -11.3895186 Eh     change       -0.1150369E-10 Eh
 * total energy  :   -11.3902665 Eh     change       -0.7479461E-03 Eh
 * total energy  :   -11.3903407 Eh     change       -0.7421600E-04 Eh
 * total energy  :   -11.3903474 Eh     change       -0.6709522E-05 Eh
 * total energy  :   -11.3903477 Eh     change       -0.2420178E-06 Eh
 * total energy  :   -11.3903482 Eh     change       -0.5564351E-06 Eh
   *** GEOMETRY OPTIMIZATION CONVERGED AFTER 6 ITERATIONS ***

 final structure:
================
9
 xtb: 6.5.0 (97a52f5)
O            0.80375694094750        0.10878148623066       -0.86858352072754
C            0.24981016191548        0.24821685761661        0.42630727948174
C           -1.25675913573149        0.03736795245184        0.31757476515819
H            0.46818866554260        1.25485945651175        0.80971235919312
H            0.69114820883375       -0.49458046408160        1.10540554536497
H           -1.44934771933234       -0.66904291822941       -0.48524973034834
H           -1.75473948741235        0.96884625399959        0.06125020708642
H           -1.66614112807100       -0.33903617495521        1.24942701042446
H            1.75581748330786        0.24217654045577       -0.82432191563302

          :  Hamiltonian                  GFN2-xTB          :
         :: total energy             -11.390348226537 Eh    ::
         :: gradient norm              0.000387535254 Eh/a0 ::
         :: HOMO-LUMO gap             12.447802774148 eV    ::
         :: SCC energy               -11.511138497920 Eh    ::
         :: -> dispersion             -0.002771062440 Eh    ::
         :: repulsion energy           0.120787423968 Eh    ::

    * Orbital Energies and Occupations

         #    Occupation            Energy/Eh            Energy/eV
      -------------------------------------------------------------
         1        2.0000           -0.6848378             -18.6354
         2        2.0000           -0.6256382             -17.0245
         3        2.0000           -0.5793574             -15.7651
         4        2.0000           -0.5665806             -15.4174
         5        2.0000           -0.5304917             -14.4354
         6        2.0000           -0.5050238             -13.7424
         7        2.0000           -0.4651280             -12.6568
         8        2.0000           -0.4590852             -12.4923
         9        2.0000           -0.4505350             -12.2597
        10        2.0000           -0.4073508             -11.0846 (HOMO)
        11                          0.0500975               1.3632 (LUMO)
        12                          0.1202351               3.2718
        13                          0.1328647               3.6154
        14                          0.1439907               3.9182
        15                          0.1853343               5.0432
        16                          0.2027273               5.5165
        17                          0.2759259               7.5083
        18                          0.2805723               7.6348
      -------------------------------------------------------------
                  HL-Gap            0.4574483 Eh           12.4478 eV

     #   Z          covCN         q      C6AA      α(0)
     1   8 O        1.655    -0.443    21.706     6.289
     2   6 C        3.671     0.091    19.300     6.297
     3   6 C        3.751    -0.112    22.707     6.796
     4   1 H        0.923     0.016     2.792     2.613
     5   1 H        0.923     0.016     2.797     2.615
     6   1 H        0.925     0.064     2.149     2.293
     7   1 H        0.925     0.046     2.367     2.406
     8   1 H        0.925     0.040     2.447     2.446
     9   1 H        0.805     0.282     0.779     1.386

Wiberg/Mayer (AO) data.
largest (>0.10) Wiberg bond orders for each atom

     #   Z sym  total        # sym  WBO       # sym  WBO       # sym  WBO
 ---------------------------------------------------------------------------
     1   8 O    1.949 --     2 C    0.992     9 H    0.907
     2   6 C    3.958 --     3 C    1.015     1 O    0.992     4 H    0.975
                             5 H    0.974
     3   6 C    3.993 --     2 C    1.015     7 H    0.989     8 H    0.988
                             6 H    0.983
     4   1 H    1.000 --     2 C    0.975
     5   1 H    1.000 --     2 C    0.974
     6   1 H    0.996 --     3 C    0.983
     7   1 H    0.998 --     3 C    0.989
     8   1 H    0.998 --     3 C    0.988
     9   1 H    0.921 --     1 O    0.907
 ---------------------------------------------------------------------------

molecular dipole:
                 x           y           z       tot (Debye)
 q only:        0.149       0.074       0.394
   full:        0.353       0.132       0.551       1.696

           -------------------------------------------------
          | TOTAL ENERGY              -11.390348226537 Eh   |
          | GRADIENT NORM               0.000387535254 Eh/α |
          | HOMO-LUMO GAP              12.447802774148 eV   |
           -------------------------------------------------

 * finished run on 2025/02/19 at 10:41:42.721
