                               Psi4 1.9.1 release

  ==> Input File <==

--------------------------------------------------------------------------
molecule {
0 1
 O    1.010845   -0.674670    0.125209
 C    0.190944    0.475581    0.145792
 C   -1.256013    0.032118    0.295453
 H    0.311787    1.046879   -0.786603
 H    0.470384    1.127981    0.986388
 H   -1.912518    0.897517    0.307472
 H   -1.375779   -0.524327    1.220773
 H   -1.528365   -0.615290   -0.533319
 H    1.930448   -0.408200    0.030356
}
memory 4GB
set_num_threads(2)
psi4_io.set_default_path("/scratch/liuchw/Psi4-ethanol")
set freeze_core True
E, wfn = energy('wb97x-d/6-311+G*',return_wfn=True)
oeprop(wfn,"WIBERG_LOWDIN_INDICES")
clean()
--------------------------------------------------------------------------

    Molecular point group: c1

    Geometry (in Angstrom), charge = 0, multiplicity = 1:

       Center              X                  Y                   Z               Mass
    ------------   -----------------  -----------------  -----------------  -----------------
         O            0.983325605000    -0.605984438976    -0.060107135392    15.994914619570
         C            0.163424605000     0.544266561024    -0.039524135392    12.000000000000
         C           -1.283532395000     0.100803561024     0.110136864608    12.000000000000
         H            0.284267605000     1.115564561024    -0.971919135392     1.007825032230
         H            0.442864605000     1.196666561024     0.801071864608     1.007825032230
         H           -1.940037395000     0.966202561024     0.122155864608     1.007825032230
         H           -1.403298395000    -0.455641438976     1.035456864608     1.007825032230
         H           -1.555884395000    -0.546604438976    -0.718635135392     1.007825032230
         H            1.902928605000    -0.339514438976    -0.154960135392     1.007825032230

  Charge       = 0
  Multiplicity = 1
  Basis Set: 6-311+G*
    Blend: 6-311+G*
  Basis Set: (6-311+G* AUX)
    Blend: HEAVY-AUG-CC-PVTZ-JKFIT

    Orbital Energies [Eh]
    ---------------------

    Doubly Occupied:

       1A    -19.246256     2A    -10.328679     3A    -10.267181
       4A     -1.129714     5A     -0.850520     6A     -0.709143
       7A     -0.613949     8A     -0.558347     9A     -0.491077
      10A     -0.471890    11A     -0.452959    12A     -0.416054
      13A     -0.359503

  @DF-RKS Final Energy:  -155.02717167248011

   => Energetics <=

    Nuclear Repulsion Energy =             81.9656905100966355
    One-Electron Energy =                -372.1351871699866933
    Two-Electron Energy =                 150.0109403935368562
    DFT Exchange-Correlation Energy =     -14.8661660673004192
    Empirical Dispersion Energy =          -0.0024493388264819
    VV10 Nonlocal Energy =                  0.0000000000000000
    Total Energy =                       -155.0271716724801081
 Dipole X            :          2.3653940           -2.1225428            0.2428512
 Dipole Y            :         -1.1332720            1.8126604            0.6793884
 Dipole Z            :         -0.1591931            0.1058048           -0.0533883
 Magnitude           :                                                    0.7234608
*** Psi4 exiting successfully. Buy a developer a beer!
