                               Psi4 1.9.1 release

  ==> Input File <==

--------------------------------------------------------------------------
molecule {
0 1
 O    1.040688   -0.013881   -0.702108
 C    0.231662    0.554264    0.307589
 C   -1.190462    0.001709    0.288443
 H    0.231384    1.632351    0.121097
 H    0.679301    0.392816    1.296913
 H   -1.638471    0.170980   -0.686930
 H   -1.791682    0.496504    1.046326
 H   -1.185157   -1.068350    0.486230
 H    1.464470   -0.808802   -0.366036
}
memory 4GB
set_num_threads(2)
psi4_io.set_default_path("/scratch/liuchw/Psi4-ethanol")
set freeze_core True
E, wfn = energy('wb97x-d/6-311+G*',return_wfn=True)
oeprop(wfn,"WIBERG_LOWDIN_INDICES")
clean()
--------------------------------------------------------------------------

    Molecular point group: c1

    Geometry (in Angstrom), charge = 0, multiplicity = 1:

       Center              X                  Y                   Z               Mass
    ------------   -----------------  -----------------  -----------------  -----------------
         O            0.978083424094    -0.171814023036    -0.655078524948    15.994914619570
         C            0.169057424094     0.396330976964     0.354618475052    12.000000000000
         C           -1.253066575906    -0.156224023036     0.335472475052    12.000000000000
         H            0.168779424094     1.474417976964     0.168126475052     1.007825032230
         H            0.616696424094     0.234882976964     1.343942475052     1.007825032230
         H           -1.701075575906     0.013046976964    -0.639900524948     1.007825032230
         H           -1.854286575906     0.338570976964     1.093355475052     1.007825032230
         H           -1.247761575906    -1.226283023036     0.533259475052     1.007825032230
         H            1.401865424094    -0.966735023036    -0.319006524948     1.007825032230

  Charge       = 0
  Multiplicity = 1
  Basis Set: 6-311+G*
    Blend: 6-311+G*
  Basis Set: (6-311+G* AUX)
    Blend: HEAVY-AUG-CC-PVTZ-JKFIT

    Orbital Energies [Eh]
    ---------------------

    Doubly Occupied:

       1A    -19.245669     2A    -10.328719     3A    -10.269418
       4A     -1.129530     5A     -0.849592     6A     -0.720218
       7A     -0.608059     8A     -0.547577     9A     -0.507343
      10A     -0.475829    11A     -0.458597    12A     -0.409520
      13A     -0.360239

  @DF-RKS Final Energy:  -155.02608309582047

   => Energetics <=

    Nuclear Repulsion Energy =             81.7530762558350261
    One-Electron Energy =                -371.6770510990467073
    Two-Electron Energy =                 149.7672904621461498
    DFT Exchange-Correlation Energy =     -14.8668941253968772
    Empirical Dispersion Energy =          -0.0025045893580647
    VV10 Nonlocal Energy =                  0.0000000000000000
    Total Energy =                       -155.0260830958204679
 Dipole X            :          2.3574050           -2.4475165           -0.0901115
 Dipole Y            :         -0.1738378           -0.1246645           -0.2985023
 Dipole Z            :         -1.3460565            2.0403266            0.6942701
 Magnitude           :                                                    0.7610747
*** Psi4 exiting successfully. Buy a developer a beer!
