                               Psi4 1.9.1 release

  ==> Input File <==

--------------------------------------------------------------------------
molecule {
0 1
 O    0.837948   -0.086038   -0.813456
 C    0.243021    0.309953    0.406961
 C   -1.260520    0.038687    0.315178
 H    0.432323    1.378150    0.584345
 H    0.687128   -0.254080    1.239247
 H   -1.464628   -0.397239   -0.658983
 H   -1.834997    0.955188    0.409851
 H   -1.585217   -0.658189    1.081713
 H    1.786678    0.071157   -0.773335
}
memory 4GB
set_num_threads(2)
psi4_io.set_default_path("/scratch/liuchw/Psi4-ethanol")
set freeze_core True
E, wfn = energy('wb97x-d/6-311+G*',return_wfn=True)
oeprop(wfn,"WIBERG_LOWDIN_INDICES")
clean()
--------------------------------------------------------------------------

    Molecular point group: c1

    Geometry (in Angstrom), charge = 0, multiplicity = 1:

       Center              X                  Y                   Z               Mass
    ------------   -----------------  -----------------  -----------------  -----------------
         O            0.855351243344    -0.170983839193    -0.760288735627    15.994914619570
         C            0.260424243344     0.225007160807     0.460128264373    12.000000000000
         C           -1.243116756656    -0.046258839193     0.368345264373    12.000000000000
         H            0.449726243344     1.293204160807     0.637512264373     1.007825032230
         H            0.704531243344    -0.339025839193     1.292414264373     1.007825032230
         H           -1.447224756656    -0.482184839193    -0.605815735627     1.007825032230
         H           -1.817593756656     0.870242160807     0.463018264373     1.007825032230
         H           -1.567813756656    -0.743134839193     1.134880264373     1.007825032230
         H            1.804081243344    -0.013788839193    -0.720167735627     1.007825032230

  Charge       = 0
  Multiplicity = 1
  Basis Set: 6-311+G*
    Blend: 6-311+G*
  Basis Set: (6-311+G* AUX)
    Blend: HEAVY-AUG-CC-PVTZ-JKFIT

    Orbital Energies [Eh]
    ---------------------

    Doubly Occupied:

       1A    -19.245579     2A    -10.328501     3A    -10.266027
       4A     -1.128919     5A     -0.847856     6A     -0.710419
       7A     -0.614313     8A     -0.556963     9A     -0.488172
      10A     -0.466034    11A     -0.457142    12A     -0.417121
      13A     -0.356852

  @DF-RKS Final Energy:  -155.02198967920251

   => Energetics <=

    Nuclear Repulsion Energy =             81.8301800939459554
    One-Electron Energy =                -371.8767977299465315
    Two-Electron Energy =                 149.8930149030381642
    DFT Exchange-Correlation Energy =     -14.8660538079807605
    Empirical Dispersion Energy =          -0.0023331382593413
    VV10 Nonlocal Energy =                  0.0000000000000000
    Total Energy =                       -155.0219896792025054
 Dipole X            :          2.1056789           -1.7529830            0.3526959
 Dipole Y            :         -0.2765897            0.5478905            0.2713008
 Dipole Z            :         -1.5069266            2.0605061            0.5535795
 Magnitude           :                                                    0.7102456
*** Psi4 exiting successfully. Buy a developer a beer!
