   * xtb version 6.5.0 (97a52f5) compiled by 'conda@d2599ee0d4f4' on 2022-05-15
          program call               : /home/liuchw/anaconda3/envs/xtbenv/bin/xtb --gfn 2 --chrg 0 --uhf 0 ethanol-opt-2-3-331_preQMOPTprefit_xyzformat.xyz --opt --input xtb-opt-2-3-331_constr.txt

   ID    Z sym.   atoms
    1    8 O      1
    2    6 C      2, 3
    3    1 H      4-9
constraining angle 4 2 3 6 to  330.9583000°, actual value:  -29.0416820°
constraining angle 9 1 2 4 to   59.6676000°, actual value:   59.6676085°

          :  Hamiltonian                  GFN2-xTB          :
 * total energy  :   -11.3894852 Eh     change       -0.1238298E-10 Eh
 * total energy  :   -11.3901948 Eh     change       -0.7095818E-03 Eh
 * total energy  :   -11.3902718 Eh     change       -0.7702403E-04 Eh
 * total energy  :   -11.3902823 Eh     change       -0.1051324E-04 Eh
 * total energy  :   -11.3902855 Eh     change       -0.3137292E-05 Eh
 * total energy  :   -11.3902861 Eh     change       -0.6520926E-06 Eh
   *** GEOMETRY OPTIMIZATION CONVERGED AFTER 6 ITERATIONS ***

 final structure:
================
9
 xtb: 6.5.0 (97a52f5)
O            0.99019176958493       -0.66836009179219       -0.06076419733714
C            0.19879953418473        0.47254284498382        0.19380525002303
C           -1.25833307096611        0.03714166379958        0.30838128821339
H            0.30925116060417        1.21191740355762       -0.61334193919255
H            0.52252665878268        0.95892597352966        1.12641769171127
H           -1.92396684668345        0.83420755673646       -0.00887212350327
H           -1.50053768854597       -0.26600233837185        1.32175640259667
H           -1.41039614819027       -0.81490429041684       -0.35021051604135
H            1.91419763122927       -0.40787870202625       -0.12565086647006

          :  Hamiltonian                  GFN2-xTB          :
         :: total energy             -11.390286108917 Eh    ::
         :: gradient norm              0.000366029599 Eh/a0 ::
         :: HOMO-LUMO gap             12.521327729117 eV    ::
         :: SCC energy               -11.511037292940 Eh    ::
         :: -> dispersion             -0.002774093697 Eh    ::
         :: repulsion energy           0.120748183844 Eh    ::

    * Orbital Energies and Occupations

         #    Occupation            Energy/Eh            Energy/eV
      -------------------------------------------------------------
         1        2.0000           -0.6854128             -18.6510
         2        2.0000           -0.6258623             -17.0306
         3        2.0000           -0.5795618             -15.7707
         4        2.0000           -0.5674576             -15.4413
         5        2.0000           -0.5302255             -14.4282
         6        2.0000           -0.5056274             -13.7588
         7        2.0000           -0.4650453             -12.6545
         8        2.0000           -0.4600614             -12.5189
         9        2.0000           -0.4502949             -12.2531
        10        2.0000           -0.4070709             -11.0770 (HOMO)
        11                          0.0530795               1.4444 (LUMO)
        12                          0.1216102               3.3092
        13                          0.1328105               3.6140
        14                          0.1425762               3.8797
        15                          0.1856009               5.0505
        16                          0.1990728               5.4170
        17                          0.2752451               7.4898
        18                          0.2829671               7.6999
      -------------------------------------------------------------
                  HL-Gap            0.4601503 Eh           12.5213 eV

     #   Z          covCN         q      C6AA      α(0)
     1   8 O        1.656    -0.441    21.655     6.282
     2   6 C        3.671     0.093    19.276     6.293
     3   6 C        3.751    -0.112    22.714     6.797
     4   1 H        0.923     0.014     2.828     2.630
     5   1 H        0.923     0.014     2.826     2.629
     6   1 H        0.925     0.040     2.451     2.448
     7   1 H        0.925     0.047     2.353     2.399
     8   1 H        0.925     0.063     2.160     2.299
     9   1 H        0.805     0.282     0.777     1.385

Wiberg/Mayer (AO) data.
largest (>0.10) Wiberg bond orders for each atom

     #   Z sym  total        # sym  WBO       # sym  WBO       # sym  WBO
 ---------------------------------------------------------------------------
     1   8 O    1.953 --     2 C    0.995     9 H    0.906
     2   6 C    3.958 --     3 C    1.015     1 O    0.995     5 H    0.974
                             4 H    0.973
     3   6 C    3.993 --     2 C    1.015     7 H    0.989     6 H    0.988
                             8 H    0.983
     4   1 H    1.000 --     2 C    0.973
     5   1 H    1.000 --     2 C    0.974
     6   1 H    0.998 --     3 C    0.988
     7   1 H    0.998 --     3 C    0.989
     8   1 H    0.996 --     3 C    0.983
     9   1 H    0.920 --     1 O    0.906
 ---------------------------------------------------------------------------

molecular dipole:
                 x           y           z       tot (Debye)
 q only:        0.072       0.413       0.041
   full:        0.240       0.618       0.052       1.691

           -------------------------------------------------
          | TOTAL ENERGY              -11.390286108917 Eh   |
          | GRADIENT NORM               0.000366029599 Eh/α |
          | HOMO-LUMO GAP              12.521327729117 eV   |
           -------------------------------------------------

 * finished run on 2025/02/19 at 10:43:35.095
