   * xtb version 6.5.0 (97a52f5) compiled by 'conda@d2599ee0d4f4' on 2022-05-15
          program call               : /home/liuchw/anaconda3/envs/xtbenv/bin/xtb --gfn 2 --chrg 0 --uhf 0 ethanol-opt-2-3-271_preQMOPTprefit_xyzformat.xyz --opt --input xtb-opt-2-3-271_constr.txt

   ID    Z sym.   atoms
    1    8 O      1
    2    6 C      2, 3
    3    1 H      4-9
constraining angle 4 2 3 6 to  270.9931000°, actual value:  -89.0069325°
constraining angle 9 1 2 4 to   59.6701000°, actual value:   59.6701468°

          :  Hamiltonian                  GFN2-xTB          :
 * total energy  :   -11.3895279 Eh     change       -0.2673595E-10 Eh
 * total energy  :   -11.3902908 Eh     change       -0.7628895E-03 Eh
 * total energy  :   -11.3903655 Eh     change       -0.7468743E-04 Eh
 * total energy  :   -11.3903716 Eh     change       -0.6163339E-05 Eh
 * total energy  :   -11.3903723 Eh     change       -0.7123636E-06 Eh
 * total energy  :   -11.3903727 Eh     change       -0.3818903E-06 Eh
   *** GEOMETRY OPTIMIZATION CONVERGED AFTER 6 ITERATIONS ***

 final structure:
================
9
 xtb: 6.5.0 (97a52f5)
O            1.01806362938281       -0.64868126240934        0.30462850942346
C            0.18744821892807        0.47828530250374        0.09587485036127
C           -1.26014791527669        0.03667407523642        0.28123295494927
H            0.34306757886953        0.86192770996944       -0.92232897588888
H            0.43951796013622        1.26874609681880        0.81629845607294
H           -1.87400575461263        0.86402105827378        0.62500895158873
H           -1.28232375337203       -0.74174587937997        1.04037749013825
H           -1.66813500714871       -0.36964597162900       -0.63843177810015
H            1.93824803309343       -0.39199312938387        0.18886054145509

          :  Hamiltonian                  GFN2-xTB          :
         :: total energy             -11.390372721095 Eh    ::
         :: gradient norm              0.000122987690 Eh/a0 ::
         :: HOMO-LUMO gap             12.438574632660 eV    ::
         :: SCC energy               -11.511211822684 Eh    ::
         :: -> dispersion             -0.002770903226 Eh    ::
         :: repulsion energy           0.120836315617 Eh    ::

    * Orbital Energies and Occupations

         #    Occupation            Energy/Eh            Energy/eV
      -------------------------------------------------------------
         1        2.0000           -0.6847807             -18.6338
         2        2.0000           -0.6256476             -17.0247
         3        2.0000           -0.5793674             -15.7654
         4        2.0000           -0.5665164             -15.4157
         5        2.0000           -0.5306397             -14.4394
         6        2.0000           -0.5050040             -13.7419
         7        2.0000           -0.4648160             -12.6483
         8        2.0000           -0.4595506             -12.5050
         9        2.0000           -0.4502236             -12.2512
        10        2.0000           -0.4074955             -11.0885 (HOMO)
        11                          0.0496137               1.3501 (LUMO)
        12                          0.1203600               3.2752
        13                          0.1328418               3.6148
        14                          0.1472061               4.0057
        15                          0.1854799               5.0472
        16                          0.1996769               5.4335
        17                          0.2708078               7.3691
        18                          0.2861365               7.7862
      -------------------------------------------------------------
                  HL-Gap            0.4571092 Eh           12.4386 eV

     #   Z          covCN         q      C6AA      α(0)
     1   8 O        1.655    -0.443    21.709     6.290
     2   6 C        3.671     0.091    19.300     6.297
     3   6 C        3.751    -0.112    22.706     6.796
     4   1 H        0.923     0.016     2.792     2.613
     5   1 H        0.923     0.016     2.796     2.615
     6   1 H        0.925     0.040     2.454     2.450
     7   1 H        0.925     0.063     2.160     2.298
     8   1 H        0.925     0.048     2.349     2.397
     9   1 H        0.805     0.282     0.779     1.387

Wiberg/Mayer (AO) data.
largest (>0.10) Wiberg bond orders for each atom

     #   Z sym  total        # sym  WBO       # sym  WBO       # sym  WBO
 ---------------------------------------------------------------------------
     1   8 O    1.949 --     2 C    0.992     9 H    0.907
     2   6 C    3.958 --     3 C    1.016     1 O    0.992     4 H    0.975
                             5 H    0.974
     3   6 C    3.993 --     2 C    1.016     8 H    0.989     6 H    0.988
                             7 H    0.983
     4   1 H    1.000 --     2 C    0.975
     5   1 H    1.000 --     2 C    0.974
     6   1 H    0.998 --     3 C    0.988
     7   1 H    0.996 --     3 C    0.983
     8   1 H    0.998 --     3 C    0.989
     9   1 H    0.921 --     1 O    0.907
 ---------------------------------------------------------------------------

molecular dipole:
                 x           y           z       tot (Debye)
 q only:        0.057       0.417      -0.088
   full:        0.221       0.614      -0.143       1.699

           -------------------------------------------------
          | TOTAL ENERGY              -11.390372721095 Eh   |
          | GRADIENT NORM               0.000122987690 Eh/α |
          | HOMO-LUMO GAP              12.438574632660 eV   |
           -------------------------------------------------

 * finished run on 2025/02/19 at 10:44:20.363
