   * xtb version 6.5.0 (97a52f5) compiled by 'conda@d2599ee0d4f4' on 2022-05-15
          program call               : /home/liuchw/anaconda3/envs/xtbenv/bin/xtb --gfn 2 --chrg 0 --uhf 0 ethanol-opt-1-2-330_preQMOPTprefit_xyzformat.xyz --opt --input xtb-opt-1-2-330_constr.txt

   ID    Z sym.   atoms
    1    8 O      1
    2    6 C      2, 3
    3    1 H      4-9
constraining angle 9 1 2 4 to  329.6797000°, actual value:  -30.3202816°
constraining angle 4 2 3 6 to   60.9724000°, actual value:   60.9724136°

          :  Hamiltonian                  GFN2-xTB          :
 * total energy  :   -11.3905393 Eh     change       -0.1609557E-10 Eh
 * total energy  :   -11.3921178 Eh     change       -0.1578551E-02 Eh
 * total energy  :   -11.3922493 Eh     change       -0.1315282E-03 Eh
 * total energy  :   -11.3922701 Eh     change       -0.2072988E-04 Eh
 * total energy  :   -11.3922833 Eh     change       -0.1322051E-04 Eh
 * total energy  :   -11.3922839 Eh     change       -0.6062485E-06 Eh
   *** GEOMETRY OPTIMIZATION CONVERGED AFTER 6 ITERATIONS ***

 final structure:
================
9
 xtb: 6.5.0 (97a52f5)
O            1.13103813199308       -0.47976372010073       -0.24102135039653
C            0.27638558760328        0.37348076962741        0.49300267426274
C           -1.19666516198195        0.03816721555681        0.25924157261797
H            0.44815020079286        1.42318093740255        0.22665256153750
H            0.52813216427408        0.22754244633102        1.54671487783028
H           -1.45544015893971        0.17550563624373       -0.78880051121288
H           -1.82604199395340        0.68383748006364        0.86548524047319
H           -1.38620484561086       -0.99761190448778        0.52735909607659
H            1.32237906582262       -0.08674887063664       -1.09711116118886

          :  Hamiltonian                  GFN2-xTB          :
         :: total energy             -11.392283902465 Eh    ::
         :: gradient norm              0.000857473798 Eh/a0 ::
         :: HOMO-LUMO gap             12.647487076927 eV    ::
         :: SCC energy               -11.513717126601 Eh    ::
         :: -> dispersion             -0.002773311677 Eh    ::
         :: repulsion energy           0.121430113578 Eh    ::

    * Orbital Energies and Occupations

         #    Occupation            Energy/Eh            Energy/eV
      -------------------------------------------------------------
         1        2.0000           -0.6851059             -18.6427
         2        2.0000           -0.6250604             -17.0088
         3        2.0000           -0.5884603             -16.0128
         4        2.0000           -0.5630152             -15.3204
         5        2.0000           -0.5268576             -14.3365
         6        2.0000           -0.5036418             -13.7048
         7        2.0000           -0.4834724             -13.1560
         8        2.0000           -0.4641103             -12.6291
         9        2.0000           -0.4370780             -11.8935
        10        2.0000           -0.4118375             -11.2067 (HOMO)
        11                          0.0529491               1.4408 (LUMO)
        12                          0.1178566               3.2070
        13                          0.1269393               3.4542
        14                          0.1620771               4.4103
        15                          0.1816727               4.9436
        16                          0.2020647               5.4985
        17                          0.2521069               6.8602
        18                          0.2918222               7.9409
      -------------------------------------------------------------
                  HL-Gap            0.4647866 Eh           12.6475 eV

     #   Z          covCN         q      C6AA      α(0)
     1   8 O        1.655    -0.443    21.698     6.288
     2   6 C        3.672     0.085    19.396     6.312
     3   6 C        3.750    -0.117    22.807     6.811
     4   1 H        0.924     0.015     2.812     2.623
     5   1 H        0.924     0.044     2.400     2.422
     6   1 H        0.925     0.041     2.441     2.443
     7   1 H        0.925     0.038     2.479     2.462
     8   1 H        0.925     0.052     2.290     2.367
     9   1 H        0.805     0.286     0.766     1.374

Wiberg/Mayer (AO) data.
largest (>0.10) Wiberg bond orders for each atom

     #   Z sym  total        # sym  WBO       # sym  WBO       # sym  WBO
 ---------------------------------------------------------------------------
     1   8 O    1.958 --     2 C    0.996     9 H    0.907
     2   6 C    3.957 --     3 C    1.009     1 O    0.996     4 H    0.977
                             5 H    0.974
     3   6 C    3.996 --     2 C    1.009     6 H    0.987     8 H    0.987
                             7 H    0.986
     4   1 H    1.000 --     2 C    0.977
     5   1 H    0.998 --     2 C    0.974
     6   1 H    0.998 --     3 C    0.987
     7   1 H    0.999 --     3 C    0.986
     8   1 H    0.997 --     3 C    0.987
     9   1 H    0.918 --     1 O    0.907
 ---------------------------------------------------------------------------

molecular dipole:
                 x           y           z       tot (Debye)
 q only:       -0.246       0.428      -0.181
   full:       -0.281       0.630      -0.308       1.919

           -------------------------------------------------
          | TOTAL ENERGY              -11.392283902465 Eh   |
          | GRADIENT NORM               0.000857473798 Eh/α |
          | HOMO-LUMO GAP              12.647487076927 eV   |
           -------------------------------------------------

 * finished run on 2025/02/19 at 10:40:26.302
