                               Psi4 1.9.1 release

  ==> Input File <==

--------------------------------------------------------------------------
molecule {
0 1
 O    0.962530   -0.137484   -0.725505
 C    0.219992    0.502631    0.299063
 C   -1.225642    0.017633    0.296784
 H    0.251597    1.583206    0.108865
 H    0.669258    0.320584    1.280967
 H   -1.673217    0.207474   -0.674558
 H   -1.794621    0.540931    1.060420
 H   -1.264564   -1.051172    0.492779
 H    1.696398   -0.626214   -0.347291
}
memory 4GB
set_num_threads(2)
psi4_io.set_default_path("/scratch/liuchw/Psi4-ethanol")
set freeze_core True
E, wfn = energy('wb97x-d/6-311+G*',return_wfn=True)
oeprop(wfn,"WIBERG_LOWDIN_INDICES")
clean()
--------------------------------------------------------------------------

    Molecular point group: c1

    Geometry (in Angstrom), charge = 0, multiplicity = 1:

       Center              X                  Y                   Z               Mass
    ------------   -----------------  -----------------  -----------------  -----------------
         O            0.936551793762    -0.246657685530    -0.670815398911    15.994914619570
         C            0.194013793762     0.393457314470     0.353752601089    12.000000000000
         C           -1.251620206238    -0.091540685530     0.351473601089    12.000000000000
         H            0.225618793762     1.474032314470     0.163554601089     1.007825032230
         H            0.643279793762     0.211410314470     1.335656601089     1.007825032230
         H           -1.699195206238     0.098300314470    -0.619868398911     1.007825032230
         H           -1.820599206238     0.431757314470     1.115109601089     1.007825032230
         H           -1.290542206238    -1.160345685530     0.547468601089     1.007825032230
         H            1.670419793762    -0.735387685530    -0.292601398911     1.007825032230

  Charge       = 0
  Multiplicity = 1
  Basis Set: 6-311+G*
    Blend: 6-311+G*
  Basis Set: (6-311+G* AUX)
    Blend: HEAVY-AUG-CC-PVTZ-JKFIT

    Orbital Energies [Eh]
    ---------------------

    Doubly Occupied:

       1A    -19.244876     2A    -10.329040     3A    -10.267024
       4A     -1.127696     5A     -0.849733     6A     -0.714529
       7A     -0.613306     8A     -0.551055     9A     -0.492600
      10A     -0.479075    11A     -0.455536    12A     -0.411462
      13A     -0.358670

  @DF-RKS Final Energy:  -155.02526748061729

   => Energetics <=

    Nuclear Repulsion Energy =             81.7138834905669853
    One-Electron Energy =                -371.6291160917652974
    Two-Electron Energy =                 149.7583994856751417
    DFT Exchange-Correlation Energy =     -14.8659875373184889
    Empirical Dispersion Energy =          -0.0024468277756038
    VV10 Nonlocal Energy =                  0.0000000000000000
    Total Energy =                       -155.0252674806172877
 Dipole X            :          2.2882421           -2.1245102            0.1637320
 Dipole Y            :         -0.3718452            0.2985865           -0.0732586
 Dipole Z            :         -1.3651979            2.1054452            0.7402474
 Magnitude           :                                                    0.7616700
*** Psi4 exiting successfully. Buy a developer a beer!
