                               Psi4 1.9.1 release

  ==> Input File <==

--------------------------------------------------------------------------
molecule {
0 1
 O    0.786452    0.292410   -0.886652
 C    0.253572    0.196438    0.418166
 C   -1.255137    0.040044    0.311795
 H    0.495416    1.100571    0.996466
 H    0.682751   -0.670449    0.942305
 H   -1.492778   -0.862173   -0.244679
 H   -1.675625    0.891475   -0.215782
 H   -1.694834   -0.022610    1.303268
 H    1.741919    0.391881   -0.833368
}
memory 4GB
set_num_threads(2)
psi4_io.set_default_path("/scratch/liuchw/Psi4-ethanol")
set freeze_core True
E, wfn = energy('wb97x-d/6-311+G*',return_wfn=True)
oeprop(wfn,"WIBERG_LOWDIN_INDICES")
clean()
--------------------------------------------------------------------------

    Molecular point group: c1

    Geometry (in Angstrom), charge = 0, multiplicity = 1:

       Center              X                  Y                   Z               Mass
    ------------   -----------------  -----------------  -----------------  -----------------
         O            0.816813577067     0.111052520608    -0.811526106527    15.994914619570
         C            0.283933577067     0.015080520608     0.493291893473    12.000000000000
         C           -1.224775422933    -0.141313479392     0.386920893473    12.000000000000
         H            0.525777577067     0.919213520608     1.071591893473     1.007825032230
         H            0.713112577067    -0.851806479392     1.017430893473     1.007825032230
         H           -1.462416422933    -1.043530479392    -0.169553106527     1.007825032230
         H           -1.645263422933     0.710117520608    -0.140656106527     1.007825032230
         H           -1.664472422933    -0.203967479392     1.378393893473     1.007825032230
         H            1.772280577067     0.210523520608    -0.758242106527     1.007825032230

  Charge       = 0
  Multiplicity = 1
  Basis Set: 6-311+G*
    Blend: 6-311+G*
  Basis Set: (6-311+G* AUX)
    Blend: HEAVY-AUG-CC-PVTZ-JKFIT

    Orbital Energies [Eh]
    ---------------------

    Doubly Occupied:

       1A    -19.246255     2A    -10.328671     3A    -10.267187
       4A     -1.129722     5A     -0.850573     6A     -0.709134
       7A     -0.613954     8A     -0.558362     9A     -0.491116
      10A     -0.471842    11A     -0.453010    12A     -0.416084
      13A     -0.359482

  @DF-RKS Final Energy:  -155.02717213088354

   => Energetics <=

    Nuclear Repulsion Energy =             81.9668610370233068
    One-Electron Energy =                -372.1372547978605780
    Two-Electron Energy =                 150.0118947820686799
    DFT Exchange-Correlation Energy =     -14.8662238655426435
    Empirical Dispersion Energy =          -0.0024492865722929
    VV10 Nonlocal Energy =                  0.0000000000000000
    Total Energy =                       -155.0271721308835424
 Dipole X            :          2.0390850           -1.6469417            0.3921433
 Dipole Y            :          0.2660360           -0.2426927            0.0233433
 Dipole Z            :         -1.6373770            2.2450574            0.6076805
 Magnitude           :                                                    0.7235999
*** Psi4 exiting successfully. Buy a developer a beer!
