   * xtb version 6.5.0 (97a52f5) compiled by 'conda@d2599ee0d4f4' on 2022-05-15
          program call               : /home/liuchw/anaconda3/envs/xtbenv/bin/xtb --gfn 2 --chrg 0 --uhf 0 ethanol-opt-1-2-300_preQMOPTprefit_xyzformat.xyz --opt --input xtb-opt-1-2-300_constr.txt

   ID    Z sym.   atoms
    1    8 O      1
    2    6 C      2, 3
    3    1 H      4-9
constraining angle 9 1 2 4 to  299.6933000°, actual value:  -60.3067460°
constraining angle 4 2 3 6 to   60.9679000°, actual value:   60.9679211°

          :  Hamiltonian                  GFN2-xTB          :
 * total energy  :   -11.3921282 Eh     change       -0.2409628E-10 Eh
 * total energy  :   -11.3940970 Eh     change       -0.1968793E-02 Eh
 * total energy  :   -11.3942205 Eh     change       -0.1235028E-03 Eh
 * total energy  :   -11.3942389 Eh     change       -0.1839236E-04 Eh
 * total energy  :   -11.3942463 Eh     change       -0.7361120E-05 Eh
 * total energy  :   -11.3942468 Eh     change       -0.4791626E-06 Eh
   *** GEOMETRY OPTIMIZATION CONVERGED AFTER 6 ITERATIONS ***

 final structure:
================
9
 xtb: 6.5.0 (97a52f5)
O            1.20595400308825       -0.39344783650507       -0.19376936336334
C            0.29353387036498        0.40502603901741        0.52327022029137
C           -1.16004788766537        0.04034073500400        0.23426925472605
H            0.45678782888799        1.46973346562476        0.30002066269164
H            0.52450069401536        0.23180906524027        1.57657914212174
H           -1.39305813504630        0.20629377920337       -0.81666101738915
H           -1.82464084944722        0.65064550689972        0.83934874300860
H           -1.33424930014631       -1.00769089051109        0.46511599437571
H            1.07295177594863       -0.24511885397337       -1.13665063646262

          :  Hamiltonian                  GFN2-xTB          :
         :: total energy             -11.394246778519 Eh    ::
         :: gradient norm              0.000374074782 Eh/a0 ::
         :: HOMO-LUMO gap             12.889861684327 eV    ::
         :: SCC energy               -11.515301827944 Eh    ::
         :: -> dispersion             -0.002778927267 Eh    ::
         :: repulsion energy           0.121054227329 Eh    ::

    * Orbital Energies and Occupations

         #    Occupation            Energy/Eh            Energy/eV
      -------------------------------------------------------------
         1        2.0000           -0.6859941             -18.6668
         2        2.0000           -0.6256362             -17.0244
         3        2.0000           -0.5946936             -16.1824
         4        2.0000           -0.5568688             -15.1532
         5        2.0000           -0.5275387             -14.3551
         6        2.0000           -0.5135434             -13.9742
         7        2.0000           -0.4802872             -13.0693
         8        2.0000           -0.4670037             -12.7078
         9        2.0000           -0.4407032             -11.9921
        10        2.0000           -0.4120573             -11.2127 (HOMO)
        11                          0.0616364               1.6772 (LUMO)
        12                          0.1124168               3.0590
        13                          0.1338172               3.6414
        14                          0.1606735               4.3721
        15                          0.1719801               4.6798
        16                          0.2096246               5.7042
        17                          0.2486786               6.7669
        18                          0.2782171               7.5707
      -------------------------------------------------------------
                  HL-Gap            0.4736937 Eh           12.8899 eV

     #   Z          covCN         q      C6AA      α(0)
     1   8 O        1.655    -0.442    21.688     6.287
     2   6 C        3.673     0.084    19.411     6.314
     3   6 C        3.750    -0.118    22.829     6.814
     4   1 H        0.923     0.016     2.801     2.617
     5   1 H        0.924     0.048     2.344     2.394
     6   1 H        0.925     0.037     2.487     2.466
     7   1 H        0.925     0.040     2.452     2.449
     8   1 H        0.925     0.051     2.313     2.378
     9   1 H        0.805     0.285     0.767     1.375

Wiberg/Mayer (AO) data.
largest (>0.10) Wiberg bond orders for each atom

     #   Z sym  total        # sym  WBO       # sym  WBO       # sym  WBO
 ---------------------------------------------------------------------------
     1   8 O    1.960 --     2 C    1.000     9 H    0.904
     2   6 C    3.957 --     3 C    1.010     1 O    1.000     5 H    0.974
                             4 H    0.972
     3   6 C    3.996 --     2 C    1.010     8 H    0.987     6 H    0.987
                             7 H    0.986
     4   1 H    1.000 --     2 C    0.972
     5   1 H    0.998 --     2 C    0.974
     6   1 H    0.999 --     3 C    0.987
     7   1 H    0.998 --     3 C    0.986
     8   1 H    0.997 --     3 C    0.987
     9   1 H    0.919 --     1 O    0.904
 ---------------------------------------------------------------------------

molecular dipole:
                 x           y           z       tot (Debye)
 q only:       -0.425       0.283      -0.218
   full:       -0.547       0.415      -0.362       1.972

           -------------------------------------------------
          | TOTAL ENERGY              -11.394246778519 Eh   |
          | GRADIENT NORM               0.000374074782 Eh/α |
          | HOMO-LUMO GAP              12.889861684327 eV   |
           -------------------------------------------------

 * finished run on 2025/02/19 at 10:40:36.559
