   * xtb version 6.5.0 (97a52f5) compiled by 'conda@d2599ee0d4f4' on 2022-05-15
          program call               : /home/liuchw/anaconda3/envs/xtbenv/bin/xtb --gfn 2 --chrg 0 --uhf 0 ethanol-opt-2-3-091_preQMOPTprefit_xyzformat.xyz --opt --input xtb-opt-2-3-091_constr.txt

   ID    Z sym.   atoms
    1    8 O      1
    2    6 C      2, 3
    3    1 H      4-9
constraining angle 4 2 3 6 to   90.9561000°, actual value:   90.9561212°
constraining angle 9 1 2 4 to   59.6681000°, actual value:   59.6681274°

          :  Hamiltonian                  GFN2-xTB          :
 * total energy  :   -11.3894713 Eh     change       -0.2547118E-10 Eh
 * total energy  :   -11.3901681 Eh     change       -0.6967926E-03 Eh
 * total energy  :   -11.3902459 Eh     change       -0.7773724E-04 Eh
 * total energy  :   -11.3902574 Eh     change       -0.1148414E-04 Eh
 * total energy  :   -11.3902586 Eh     change       -0.1275120E-05 Eh
 * total energy  :   -11.3902591 Eh     change       -0.4255610E-06 Eh
   *** GEOMETRY OPTIMIZATION CONVERGED AFTER 6 ITERATIONS ***

 final structure:
================
9
 xtb: 6.5.0 (97a52f5)
O            0.87329167452479       -0.27043575967025       -0.71419685459234
C            0.23095924635814        0.36267558860972        0.37123981526100
C           -1.25858007327759        0.03960206480012        0.30901193010833
H            0.38332277898397        1.45187993477300        0.33432623939062
H            0.65450088436192        0.00847773689792        1.32328077507906
H           -1.54054763875967       -0.09153170566341       -0.73218513560298
H           -1.84844609427069        0.83333531776172        0.75563014719228
H           -1.46937102507949       -0.89334045426962        0.82533293923187
H            1.81660323715862       -0.08307473323920       -0.68091685606785

          :  Hamiltonian                  GFN2-xTB          :
         :: total energy             -11.390259052675 Eh    ::
         :: gradient norm              0.000707914879 Eh/a0 ::
         :: HOMO-LUMO gap             12.534539404625 eV    ::
         :: SCC energy               -11.510934879592 Eh    ::
         :: -> dispersion             -0.002774438132 Eh    ::
         :: repulsion energy           0.120673062876 Eh    ::

    * Orbital Energies and Occupations

         #    Occupation            Energy/Eh            Energy/eV
      -------------------------------------------------------------
         1        2.0000           -0.6855043             -18.6535
         2        2.0000           -0.6258674             -17.0307
         3        2.0000           -0.5795572             -15.7706
         4        2.0000           -0.5675603             -15.4441
         5        2.0000           -0.5300744             -14.4241
         6        2.0000           -0.5056780             -13.7602
         7        2.0000           -0.4654114             -12.6645
         8        2.0000           -0.4595797             -12.5058
         9        2.0000           -0.4506076             -12.2617
        10        2.0000           -0.4068982             -11.0723 (HOMO)
        11                          0.0537377               1.4623 (LUMO)
        12                          0.1217538               3.3131
        13                          0.1327682               3.6128
        14                          0.1392715               3.7898
        15                          0.1854369               5.0460
        16                          0.2021738               5.5014
        17                          0.2765196               7.5245
        18                          0.2807311               7.6391
      -------------------------------------------------------------
                  HL-Gap            0.4606358 Eh           12.5345 eV

     #   Z          covCN         q      C6AA      α(0)
     1   8 O        1.656    -0.440    21.650     6.281
     2   6 C        3.671     0.093    19.274     6.293
     3   6 C        3.751    -0.112    22.715     6.797
     4   1 H        0.923     0.014     2.831     2.631
     5   1 H        0.923     0.014     2.829     2.630
     6   1 H        0.925     0.064     2.151     2.293
     7   1 H        0.925     0.040     2.445     2.445
     8   1 H        0.925     0.046     2.371     2.408
     9   1 H        0.805     0.282     0.777     1.385

Wiberg/Mayer (AO) data.
largest (>0.10) Wiberg bond orders for each atom

     #   Z sym  total        # sym  WBO       # sym  WBO       # sym  WBO
 ---------------------------------------------------------------------------
     1   8 O    1.953 --     2 C    0.995     9 H    0.906
     2   6 C    3.958 --     3 C    1.015     1 O    0.995     5 H    0.974
                             4 H    0.973
     3   6 C    3.993 --     2 C    1.015     8 H    0.989     7 H    0.988
                             6 H    0.983
     4   1 H    1.000 --     2 C    0.973
     5   1 H    1.000 --     2 C    0.974
     6   1 H    0.996 --     3 C    0.983
     7   1 H    0.998 --     3 C    0.988
     8   1 H    0.998 --     3 C    0.989
     9   1 H    0.920 --     1 O    0.906
 ---------------------------------------------------------------------------

molecular dipole:
                 x           y           z       tot (Debye)
 q only:        0.121       0.249       0.315
   full:        0.314       0.371       0.453       1.688

           -------------------------------------------------
          | TOTAL ENERGY              -11.390259052675 Eh   |
          | GRADIENT NORM               0.000707914879 Eh/α |
          | HOMO-LUMO GAP              12.534539404625 eV   |
           -------------------------------------------------

 * finished run on 2025/02/19 at 10:41:13.152
