                               Psi4 1.9.1 release

  ==> Input File <==

--------------------------------------------------------------------------
molecule {
0 1
 O    0.904612   -0.409007   -0.593227
 C    0.220629    0.397779    0.343417
 C   -1.255681    0.035738    0.302163
 H    0.351330    1.462018    0.097112
 H    0.618736    0.228089    1.354892
 H   -1.647537    0.206278   -0.696659
 H   -1.808863    0.641298    1.014596
 H   -1.382816   -1.015036    0.547041
 H    1.841324   -0.189569   -0.577814
}
memory 4GB
set_num_threads(2)
psi4_io.set_default_path("/scratch/liuchw/Psi4-ethanol")
set freeze_core True
E, wfn = energy('wb97x-d/6-311+G*',return_wfn=True)
oeprop(wfn,"WIBERG_LOWDIN_INDICES")
clean()
--------------------------------------------------------------------------

    Molecular point group: c1

    Geometry (in Angstrom), charge = 0, multiplicity = 1:

       Center              X                  Y                   Z               Mass
    ------------   -----------------  -----------------  -----------------  -----------------
         O            0.904506141993    -0.409086956243    -0.593468559083    15.994914619570
         C            0.220523141993     0.397699043757     0.343175440917    12.000000000000
         C           -1.255786858007     0.035658043757     0.301921440917    12.000000000000
         H            0.351224141993     1.461938043757     0.096870440917     1.007825032230
         H            0.618630141993     0.228009043757     1.354650440917     1.007825032230
         H           -1.647642858007     0.206198043757    -0.696900559083     1.007825032230
         H           -1.808968858007     0.641218043757     1.014354440917     1.007825032230
         H           -1.382921858007    -1.015115956243     0.546799440917     1.007825032230
         H            1.841218141993    -0.189648956243    -0.578055559083     1.007825032230

  Charge       = 0
  Multiplicity = 1
  Basis Set: 6-311+G*
    Blend: 6-311+G*
  Basis Set: (6-311+G* AUX)
    Blend: HEAVY-AUG-CC-PVTZ-JKFIT

    Orbital Energies [Eh]
    ---------------------

    Doubly Occupied:

       1A    -19.246244     2A    -10.328683     3A    -10.267196
       4A     -1.129669     5A     -0.850533     6A     -0.709122
       7A     -0.613901     8A     -0.558370     9A     -0.491085
      10A     -0.471853    11A     -0.452948    12A     -0.416081
      13A     -0.359499

  @DF-RKS Final Energy:  -155.02717474577511

   => Energetics <=

    Nuclear Repulsion Energy =             81.9658174970974613
    One-Electron Energy =                -372.1356658304896428
    Two-Electron Energy =                 150.0112231709373134
    DFT Exchange-Correlation Energy =     -14.8661002992504354
    Empirical Dispersion Energy =          -0.0024492840698305
    VV10 Nonlocal Energy =                  0.0000000000000000
    Total Energy =                       -155.0271747457751133
 Dipole X            :          2.2108190           -1.8972743            0.3135447
 Dipole Y            :         -0.7494377            1.2473045            0.4978669
 Dipole Z            :         -1.2050501            1.6262066            0.4211565
 Magnitude           :                                                    0.7235707
*** Psi4 exiting successfully. Buy a developer a beer!
