   * xtb version 6.5.0 (97a52f5) compiled by 'conda@d2599ee0d4f4' on 2022-05-15
          program call               : /home/liuchw/anaconda3/envs/xtbenv/bin/xtb --gfn 2 --chrg 0 --uhf 0 ethanol-opt-2-3-061_preQMOPTprefit_xyzformat.xyz --opt --input xtb-opt-2-3-061_constr.txt

   ID    Z sym.   atoms
    1    8 O      1
    2    6 C      2, 3
    3    1 H      4-9
constraining angle 4 2 3 6 to   60.9743000°, actual value:   60.9743381°
constraining angle 9 1 2 4 to   59.6706000°, actual value:   59.6706055°

          :  Hamiltonian                  GFN2-xTB          :
 * total energy  :   -11.3912283 Eh     change       -0.8819612E-11 Eh
 * total energy  :   -11.3917945 Eh     change       -0.5662380E-03 Eh
 * total energy  :   -11.3918572 Eh     change       -0.6271040E-04 Eh
 * total energy  :   -11.3918650 Eh     change       -0.7829284E-05 Eh
 * total energy  :   -11.3918670 Eh     change       -0.2016520E-05 Eh
 * total energy  :   -11.3918674 Eh     change       -0.3114101E-06 Eh
   *** GEOMETRY OPTIMIZATION CONVERGED AFTER 6 ITERATIONS ***

 final structure:
================
9
 xtb: 6.5.0 (97a52f5)
O            0.90461152933095       -0.40900650367571       -0.59322738096069
C            0.22062942051896        0.39777933125786        0.34341687469697
C           -1.25568084576846        0.03573830554471        0.30216339544003
H            0.35132956722649        1.46201828264036        0.09711154971520
H            0.61873581319290        0.22808853657304        1.35489213305332
H           -1.64753732974725        0.20627783979799       -0.69665894343793
H           -1.80886333707620        0.64129792847113        1.01459649515347
H           -1.38281612785103       -1.01503601652134        0.54704145670473
H            1.84132431017365       -0.18956869408805       -0.57781357036510

          :  Hamiltonian                  GFN2-xTB          :
         :: total energy             -11.391867360768 Eh    ::
         :: gradient norm              0.000834550516 Eh/a0 ::
         :: HOMO-LUMO gap             12.549820163307 eV    ::
         :: SCC energy               -11.512898853470 Eh    ::
         :: -> dispersion             -0.002776467619 Eh    ::
         :: repulsion energy           0.121031003748 Eh    ::

    * Orbital Energies and Occupations

         #    Occupation            Energy/Eh            Energy/eV
      -------------------------------------------------------------
         1        2.0000           -0.6851903             -18.6450
         2        2.0000           -0.6262610             -17.0414
         3        2.0000           -0.5795051             -15.7691
         4        2.0000           -0.5670661             -15.4307
         5        2.0000           -0.5305969             -14.4383
         6        2.0000           -0.5061188             -13.7722
         7        2.0000           -0.4657486             -12.6737
         8        2.0000           -0.4595305             -12.5045
         9        2.0000           -0.4503743             -12.2553
        10        2.0000           -0.4079510             -11.1009 (HOMO)
        11                          0.0532464               1.4489 (LUMO)
        12                          0.1263097               3.4371
        13                          0.1321006               3.5946
        14                          0.1527420               4.1563
        15                          0.1818173               4.9475
        16                          0.2122850               5.7766
        17                          0.2642225               7.1899
        18                          0.2709222               7.3722
      -------------------------------------------------------------
                  HL-Gap            0.4611974 Eh           12.5498 eV

     #   Z          covCN         q      C6AA      α(0)
     1   8 O        1.656    -0.442    21.675     6.285
     2   6 C        3.672     0.092    19.280     6.294
     3   6 C        3.751    -0.111    22.676     6.791
     4   1 H        0.923     0.015     2.817     2.625
     5   1 H        0.923     0.015     2.817     2.625
     6   1 H        0.925     0.055     2.264     2.353
     7   1 H        0.925     0.039     2.461     2.453
     8   1 H        0.925     0.055     2.263     2.353
     9   1 H        0.805     0.283     0.776     1.384

Wiberg/Mayer (AO) data.
largest (>0.10) Wiberg bond orders for each atom

     #   Z sym  total        # sym  WBO       # sym  WBO       # sym  WBO
 ---------------------------------------------------------------------------
     1   8 O    1.951 --     2 C    0.994     9 H    0.907
     2   6 C    3.958 --     3 C    1.018     1 O    0.994     4 H    0.973
                             5 H    0.973
     3   6 C    3.994 --     2 C    1.018     7 H    0.986     6 H    0.986
                             8 H    0.986
     4   1 H    1.000 --     2 C    0.973
     5   1 H    1.000 --     2 C    0.973
     6   1 H    0.997 --     3 C    0.986
     7   1 H    0.998 --     3 C    0.986
     8   1 H    0.997 --     3 C    0.986
     9   1 H    0.920 --     1 O    0.907
 ---------------------------------------------------------------------------

molecular dipole:
                 x           y           z       tot (Debye)
 q only:        0.110       0.313       0.283
   full:        0.293       0.467       0.395       1.724

           -------------------------------------------------
          | TOTAL ENERGY              -11.391867360768 Eh   |
          | GRADIENT NORM               0.000834550516 Eh/α |
          | HOMO-LUMO GAP              12.549820163307 eV   |
           -------------------------------------------------

 * finished run on 2025/02/19 at 10:40:59.928
