   * xtb version 6.5.0 (97a52f5) compiled by 'conda@d2599ee0d4f4' on 2022-05-15
          program call               : /home/liuchw/anaconda3/envs/xtbenv/bin/xtb --gfn 2 --chrg 0 --uhf 0 ethanol-opt-1-2-360_preQMOPTprefit_xyzformat.xyz --opt --input xtb-opt-1-2-360_constr.txt

   ID    Z sym.   atoms
    1    8 O      1
    2    6 C      2, 3
    3    1 H      4-9
constraining angle 9 1 2 4 to  359.6746000°, actual value:   -0.3254152°
constraining angle 4 2 3 6 to   60.9755000°, actual value:   60.9754844°

          :  Hamiltonian                  GFN2-xTB          :
 * total energy  :   -11.3892713 Eh     change       -0.4217604E-10 Eh
 * total energy  :   -11.3902950 Eh     change       -0.1023733E-02 Eh
 * total energy  :   -11.3903870 Eh     change       -0.9198790E-04 Eh
 * total energy  :   -11.3903976 Eh     change       -0.1055594E-04 Eh
 * total energy  :   -11.3904069 Eh     change       -0.9375538E-05 Eh
 * total energy  :   -11.3904074 Eh     change       -0.4306232E-06 Eh
   *** GEOMETRY OPTIMIZATION CONVERGED AFTER 6 ITERATIONS ***

 final structure:
================
9
 xtb: 6.5.0 (97a52f5)
O            1.03961933190777       -0.51936607928641       -0.34193450447007
C            0.25250226443714        0.35993391153638        0.44364458860492
C           -1.22977298724347        0.03832628621941        0.27979937478406
H            0.43222751870667        1.40390073932583        0.16694569399887
H            0.54440862520182        0.22759615561302        1.49334059700092
H           -1.53165625934715        0.17400655874465       -0.75600732525378
H           -1.82514069873035        0.68966332327390        0.91380479743840
H           -1.41166415714895       -0.99593389668319        0.55779236876907
H            1.57120836221651       -0.02053698874359       -0.96586360087240

          :  Hamiltonian                  GFN2-xTB          :
         :: total energy             -11.390407375255 Eh    ::
         :: gradient norm              0.000994191950 Eh/a0 ::
         :: HOMO-LUMO gap             12.371276801438 eV    ::
         :: SCC energy               -11.511939479036 Eh    ::
         :: -> dispersion             -0.002770669399 Eh    ::
         :: repulsion energy           0.121531269317 Eh    ::

    * Orbital Energies and Occupations

         #    Occupation            Energy/Eh            Energy/eV
      -------------------------------------------------------------
         1        2.0000           -0.6840120             -18.6129
         2        2.0000           -0.6250717             -17.0091
         3        2.0000           -0.5827464             -15.8573
         4        2.0000           -0.5667568             -15.4222
         5        2.0000           -0.5271448             -14.3443
         6        2.0000           -0.5007924             -13.6273
         7        2.0000           -0.4797641             -13.0550
         8        2.0000           -0.4621205             -12.5749
         9        2.0000           -0.4398224             -11.9682
        10        2.0000           -0.4085871             -11.1182 (HOMO)
        11                          0.0460489               1.2531 (LUMO)
        12                          0.1225525               3.3348
        13                          0.1237136               3.3664
        14                          0.1589244               4.3246
        15                          0.1820477               4.9538
        16                          0.2085132               5.6739
        17                          0.2553455               6.9483
        18                          0.2960265               8.0553
      -------------------------------------------------------------
                  HL-Gap            0.4546361 Eh           12.3713 eV

     #   Z          covCN         q      C6AA      α(0)
     1   8 O        1.655    -0.445    21.740     6.294
     2   6 C        3.672     0.088    19.353     6.305
     3   6 C        3.750    -0.114    22.751     6.803
     4   1 H        0.924     0.015     2.817     2.625
     5   1 H        0.924     0.032     2.553     2.499
     6   1 H        0.925     0.046     2.371     2.408
     7   1 H        0.925     0.038     2.478     2.462
     8   1 H        0.925     0.055     2.260     2.351
     9   1 H        0.805     0.286     0.765     1.374

Wiberg/Mayer (AO) data.
largest (>0.10) Wiberg bond orders for each atom

     #   Z sym  total        # sym  WBO       # sym  WBO       # sym  WBO
 ---------------------------------------------------------------------------
     1   8 O    1.952 --     2 C    0.991     9 H    0.908
     2   6 C    3.957 --     3 C    1.013     1 O    0.991     4 H    0.980
                             5 H    0.972
     3   6 C    3.995 --     2 C    1.013     6 H    0.987     8 H    0.986
                             7 H    0.986
     4   1 H    1.000 --     2 C    0.980
     5   1 H    0.999 --     2 C    0.972
     6   1 H    0.998 --     3 C    0.987
     7   1 H    0.999 --     3 C    0.986
     8   1 H    0.997 --     3 C    0.986
     9   1 H    0.918 --     1 O    0.908
 ---------------------------------------------------------------------------

molecular dipole:
                 x           y           z       tot (Debye)
 q only:       -0.082       0.491      -0.068
   full:       -0.016       0.726      -0.132       1.875

           -------------------------------------------------
          | TOTAL ENERGY              -11.390407375255 Eh   |
          | GRADIENT NORM               0.000994191950 Eh/α |
          | HOMO-LUMO GAP              12.371276801438 eV   |
           -------------------------------------------------

 * finished run on 2025/02/19 at 10:40:17.149
