                               Psi4 1.9.1 release

  ==> Input File <==

--------------------------------------------------------------------------
molecule {
0 1
 O    1.258295   -0.043143   -0.394766
 C    0.280685    0.600913    0.399485
 C   -1.092071   -0.046596    0.301470
 H    0.224024    1.650190    0.081131
 H    0.630318    0.581409    1.439696
 H   -1.449768   -0.027197   -0.727170
 H   -1.802705    0.490966    0.923470
 H   -1.050271   -1.080872    0.639970
 H    0.843225   -0.768083   -0.871766
}
memory 4GB
set_num_threads(2)
psi4_io.set_default_path("/scratch/liuchw/Psi4-ethanol")
set freeze_core True
E, wfn = energy('wb97x-d/6-311+G*',return_wfn=True)
oeprop(wfn,"WIBERG_LOWDIN_INDICES")
clean()
--------------------------------------------------------------------------

    Molecular point group: c1

    Geometry (in Angstrom), charge = 0, multiplicity = 1:

       Center              X                  Y                   Z               Mass
    ------------   -----------------  -----------------  -----------------  -----------------
         O            1.089663114024    -0.191155501997    -0.472828982741    15.994914619570
         C            0.112053114024     0.452900498003     0.321422017259    12.000000000000
         C           -1.260702885976    -0.194608501997     0.223407017259    12.000000000000
         H            0.055392114024     1.502177498003     0.003068017259     1.007825032230
         H            0.461686114024     0.433396498003     1.361633017259     1.007825032230
         H           -1.618399885976    -0.175209501997    -0.805232982741     1.007825032230
         H           -1.971336885976     0.342953498003     0.845407017259     1.007825032230
         H           -1.218902885976    -1.228884501997     0.561907017259     1.007825032230
         H            0.674593114024    -0.916095501997    -0.949828982741     1.007825032230

  Charge       = 0
  Multiplicity = 1
  Basis Set: 6-311+G*
    Blend: 6-311+G*
  Basis Set: (6-311+G* AUX)
    Blend: HEAVY-AUG-CC-PVTZ-JKFIT

    Orbital Energies [Eh]
    ---------------------

    Doubly Occupied:

       1A    -19.243499     2A    -10.328058     3A    -10.282936
       4A     -1.128332     5A     -0.855297     6A     -0.731146
       7A     -0.576198     8A     -0.562489     9A     -0.540611
      10A     -0.468176    11A     -0.464633    12A     -0.414908
      13A     -0.356511

  @DF-RKS Final Energy:  -155.02485384612640

   => Energetics <=

    Nuclear Repulsion Energy =             81.9865640491857022
    One-Electron Energy =                -372.0560786788136056
    Two-Electron Energy =                 149.9145831961348847
    DFT Exchange-Correlation Energy =     -14.8673081695340947
    Empirical Dispersion Energy =          -0.0026142430992777
    VV10 Nonlocal Energy =                  0.0000000000000000
    Total Energy =                       -155.0248538461264047
 Dipole X            :          2.5556284           -3.3855616           -0.8299332
 Dipole Y            :         -0.1732740           -0.0399754           -0.2132494
 Dipole Z            :         -0.8923329            0.9510906            0.0587576
 Magnitude           :                                                    0.8589044
*** Psi4 exiting successfully. Buy a developer a beer!
