                               Psi4 1.9.1 release

  ==> Input File <==

--------------------------------------------------------------------------
molecule {
0 1
 O    0.803757    0.108781   -0.868584
 C    0.249810    0.248217    0.426307
 C   -1.256759    0.037368    0.317575
 H    0.468189    1.254859    0.809712
 H    0.691148   -0.494580    1.105406
 H   -1.449348   -0.669043   -0.485250
 H   -1.754739    0.968846    0.061250
 H   -1.666141   -0.339036    1.249427
 H    1.755817    0.242177   -0.824322
}
memory 4GB
set_num_threads(2)
psi4_io.set_default_path("/scratch/liuchw/Psi4-ethanol")
set freeze_core True
E, wfn = energy('wb97x-d/6-311+G*',return_wfn=True)
oeprop(wfn,"WIBERG_LOWDIN_INDICES")
clean()
--------------------------------------------------------------------------

    Molecular point group: c1

    Geometry (in Angstrom), charge = 0, multiplicity = 1:

       Center              X                  Y                   Z               Mass
    ------------   -----------------  -----------------  -----------------  -----------------
         O            0.829771062029    -0.024526438419    -0.802663007757    15.994914619570
         C            0.275824062029     0.114909561581     0.492227992243    12.000000000000
         C           -1.230744937971    -0.095939438419     0.383495992243    12.000000000000
         H            0.494203062029     1.121551561581     0.875632992243     1.007825032230
         H            0.717162062029    -0.627887438419     1.171326992243     1.007825032230
         H           -1.423333937971    -0.802350438419    -0.419329007757     1.007825032230
         H           -1.728724937971     0.835538561581     0.127170992243     1.007825032230
         H           -1.640126937971    -0.472343438419     1.315347992243     1.007825032230
         H            1.781831062029     0.108869561581    -0.758401007757     1.007825032230

  Charge       = 0
  Multiplicity = 1
  Basis Set: 6-311+G*
    Blend: 6-311+G*
  Basis Set: (6-311+G* AUX)
    Blend: HEAVY-AUG-CC-PVTZ-JKFIT

    Orbital Energies [Eh]
    ---------------------

    Doubly Occupied:

       1A    -19.245516     2A    -10.328599     3A    -10.266577
       4A     -1.128694     5A     -0.849193     6A     -0.709688
       7A     -0.613306     8A     -0.558282     9A     -0.489161
      10A     -0.471303    11A     -0.452871    12A     -0.416382
      13A     -0.358509

  @DF-RKS Final Energy:  -155.02475161389572

   => Energetics <=

    Nuclear Repulsion Energy =             81.9225856324419652
    One-Electron Energy =                -372.0587535281568989
    Two-Electron Energy =                 149.9797745581936965
    DFT Exchange-Correlation Energy =     -14.8659655418486683
    Empirical Dispersion Energy =          -0.0023927345257867
    VV10 Nonlocal Energy =                  0.0000000000000000
    Total Energy =                       -155.0247516138957167
 Dipole X            :          2.0595105           -1.6825108            0.3769997
 Dipole Y            :         -0.0115281            0.1530444            0.1415163
 Dipole Z            :         -1.5697670            2.1633373            0.5935703
 Magnitude           :                                                    0.7172735
*** Psi4 exiting successfully. Buy a developer a beer!
