                               Psi4 1.9.1 release

  ==> Input File <==

--------------------------------------------------------------------------
molecule {
0 1
 O    0.932669   -0.522611   -0.447108
 C    0.213839    0.435066    0.308692
 C   -1.258201    0.036253    0.297220
 H    0.344447    1.427592   -0.144415
 H    0.594454    0.460652    1.339051
 H   -1.770501    0.464430   -0.559044
 H   -1.752164    0.388779    1.198931
 H   -1.328123   -1.046179    0.253606
 H    1.865315   -0.286392   -0.455411
}
memory 4GB
set_num_threads(2)
psi4_io.set_default_path("/scratch/liuchw/Psi4-ethanol")
set freeze_core True
E, wfn = energy('wb97x-d/6-311+G*',return_wfn=True)
oeprop(wfn,"WIBERG_LOWDIN_INDICES")
clean()
--------------------------------------------------------------------------

    Molecular point group: c1

    Geometry (in Angstrom), charge = 0, multiplicity = 1:

       Center              X                  Y                   Z               Mass
    ------------   -----------------  -----------------  -----------------  -----------------
         O            0.925652982452    -0.494736721180    -0.485442324477    15.994914619570
         C            0.206822982452     0.462940278820     0.270357675523    12.000000000000
         C           -1.265217017548     0.064127278820     0.258885675523    12.000000000000
         H            0.337430982452     1.455466278820    -0.182749324477     1.007825032230
         H            0.587437982452     0.488526278820     1.300716675523     1.007825032230
         H           -1.777517017548     0.492304278820    -0.597378324477     1.007825032230
         H           -1.759180017548     0.416653278820     1.160596675523     1.007825032230
         H           -1.335139017548    -1.018304721180     0.215271675523     1.007825032230
         H            1.858298982452    -0.258517721180    -0.493745324477     1.007825032230

  Charge       = 0
  Multiplicity = 1
  Basis Set: 6-311+G*
    Blend: 6-311+G*
  Basis Set: (6-311+G* AUX)
    Blend: HEAVY-AUG-CC-PVTZ-JKFIT

    Orbital Energies [Eh]
    ---------------------

    Doubly Occupied:

       1A    -19.245226     2A    -10.328590     3A    -10.266711
       4A     -1.128325     5A     -0.849336     6A     -0.709732
       7A     -0.612933     8A     -0.558713     9A     -0.489051
      10A     -0.469293    11A     -0.454961    12A     -0.416354
      13A     -0.358341

  @DF-RKS Final Energy:  -155.02466768416755

   => Energetics <=

    Nuclear Repulsion Energy =             81.8923859560628671
    One-Electron Energy =                -371.9991144487612473
    Two-Electron Energy =                 149.9505495988213966
    DFT Exchange-Correlation Energy =     -14.8660962460724910
    Empirical Dispersion Energy =          -0.0023925442180792
    VV10 Nonlocal Energy =                  0.0000000000000000
    Total Energy =                       -155.0246676841675537
 Dipole X            :          2.2440964           -1.9536148            0.2904816
 Dipole Y            :         -0.9047560            1.4751944            0.5704384
 Dipole Z            :         -0.9787347            1.3126672            0.3339325
 Magnitude           :                                                    0.7220044
*** Psi4 exiting successfully. Buy a developer a beer!
