   * xtb version 6.5.0 (97a52f5) compiled by 'conda@d2599ee0d4f4' on 2022-05-15
          program call               : /home/liuchw/anaconda3/envs/xtbenv/bin/xtb --gfn 2 --chrg 0 --uhf 0 ethanol-opt-1-2-150_preQMOPTprefit_xyzformat.xyz --opt --input xtb-opt-1-2-150_constr.txt

   ID    Z sym.   atoms
    1    8 O      1
    2    6 C      2, 3
    3    1 H      4-9
constraining angle 9 1 2 4 to  149.6602000°, actual value:  149.6601647°
constraining angle 4 2 3 6 to   60.9784000°, actual value:   60.9784187°

          :  Hamiltonian                  GFN2-xTB          :
 * total energy  :   -11.3905617 Eh     change       -0.2060574E-10 Eh
 * total energy  :   -11.3922946 Eh     change       -0.1732902E-02 Eh
 * total energy  :   -11.3924386 Eh     change       -0.1439743E-03 Eh
 * total energy  :   -11.3924666 Eh     change       -0.2803588E-04 Eh
 * total energy  :   -11.3924721 Eh     change       -0.5482757E-05 Eh
 * total energy  :   -11.3924726 Eh     change       -0.5101591E-06 Eh
   *** GEOMETRY OPTIMIZATION CONVERGED AFTER 6 ITERATIONS ***

 final structure:
================
9
 xtb: 6.5.0 (97a52f5)
O            1.04068834986033       -0.01388096736973       -0.70210829204424
C            0.23166159870173        0.55426418300810        0.30758881851827
C           -1.19046157202853        0.00170934618103        0.28844285284535
H            0.23138357008129        1.63235050804245        0.12109651213494
H            0.67930141103800        0.39281625696532        1.29691287197505
H           -1.63847110582367        0.17097986075610       -0.68692994695292
H           -1.79168233728377        0.49650363656623        1.04632609104762
H           -1.18515684216868       -1.06835036703440        0.48623045570986
H            1.46446993762330       -0.80880245711510       -0.36603637323394

          :  Hamiltonian                  GFN2-xTB          :
         :: total energy             -11.392472628290 Eh    ::
         :: gradient norm              0.000852659253 Eh/a0 ::
         :: HOMO-LUMO gap             12.667333658408 eV    ::
         :: SCC energy               -11.513866955897 Eh    ::
         :: -> dispersion             -0.002773176201 Eh    ::
         :: repulsion energy           0.121391202127 Eh    ::

    * Orbital Energies and Occupations

         #    Occupation            Energy/Eh            Energy/eV
      -------------------------------------------------------------
         1        2.0000           -0.6851252             -18.6432
         2        2.0000           -0.6251432             -17.0110
         3        2.0000           -0.5891840             -16.0325
         4        2.0000           -0.5626116             -15.3094
         5        2.0000           -0.5270073             -14.3406
         6        2.0000           -0.5043654             -13.7245
         7        2.0000           -0.4833728             -13.1532
         8        2.0000           -0.4644767             -12.6391
         9        2.0000           -0.4363656             -11.8741
        10        2.0000           -0.4126357             -11.2284 (HOMO)
        11                          0.0528802               1.4389 (LUMO)
        12                          0.1166831               3.1751
        13                          0.1256190               3.4183
        14                          0.1664336               4.5289
        15                          0.1832894               4.9876
        16                          0.2011981               5.4749
        17                          0.2523707               6.8674
        18                          0.2882252               7.8430
      -------------------------------------------------------------
                  HL-Gap            0.4655159 Eh           12.6673 eV

     #   Z          covCN         q      C6AA      α(0)
     1   8 O        1.655    -0.443    21.705     6.289
     2   6 C        3.672     0.085    19.388     6.311
     3   6 C        3.750    -0.117    22.802     6.810
     4   1 H        0.924     0.043     2.407     2.426
     5   1 H        0.924     0.014     2.830     2.631
     6   1 H        0.925     0.053     2.283     2.363
     7   1 H        0.925     0.038     2.471     2.458
     8   1 H        0.925     0.041     2.438     2.442
     9   1 H        0.805     0.286     0.766     1.375

Wiberg/Mayer (AO) data.
largest (>0.10) Wiberg bond orders for each atom

     #   Z sym  total        # sym  WBO       # sym  WBO       # sym  WBO
 ---------------------------------------------------------------------------
     1   8 O    1.958 --     2 C    0.996     9 H    0.907
     2   6 C    3.957 --     3 C    1.010     1 O    0.996     5 H    0.976
                             4 H    0.973
     3   6 C    3.996 --     2 C    1.010     8 H    0.987     6 H    0.987
                             7 H    0.986
     4   1 H    0.998 --     2 C    0.973
     5   1 H    1.000 --     2 C    0.976
     6   1 H    0.997 --     3 C    0.987
     7   1 H    0.999 --     3 C    0.986
     8   1 H    0.998 --     3 C    0.987
     9   1 H    0.918 --     1 O    0.907
 ---------------------------------------------------------------------------

molecular dipole:
                 x           y           z       tot (Debye)
 q only:       -0.130      -0.222       0.465
   full:       -0.098      -0.345       0.667       1.926

           -------------------------------------------------
          | TOTAL ENERGY              -11.392472628290 Eh   |
          | GRADIENT NORM               0.000852659253 Eh/α |
          | HOMO-LUMO GAP              12.667333658408 eV   |
           -------------------------------------------------

 * finished run on 2025/02/19 at 10:39:46.350
