   * xtb version 6.5.0 (97a52f5) compiled by 'conda@d2599ee0d4f4' on 2022-05-15
          program call               : /home/liuchw/anaconda3/envs/xtbenv/bin/xtb --gfn 2 --chrg 0 --uhf 0 ethanol-opt-2-3-181_preQMOPTprefit_xyzformat.xyz --opt --input xtb-opt-2-3-181_constr.txt

   ID    Z sym.   atoms
    1    8 O      1
    2    6 C      2, 3
    3    1 H      4-9
constraining angle 4 2 3 6 to  180.9764000°, actual value: -179.0235964°
constraining angle 9 1 2 4 to   59.6707000°, actual value:   59.6707043°

          :  Hamiltonian                  GFN2-xTB          :
 * total energy  :   -11.3912331 Eh     change       -0.3975487E-11 Eh
 * total energy  :   -11.3917908 Eh     change       -0.5577497E-03 Eh
 * total energy  :   -11.3918573 Eh     change       -0.6648971E-04 Eh
 * total energy  :   -11.3918646 Eh     change       -0.7286138E-05 Eh
 * total energy  :   -11.3918655 Eh     change       -0.9116833E-06 Eh
 * total energy  :   -11.3918657 Eh     change       -0.2162490E-06 Eh
 * total energy  :   -11.3918658 Eh     change       -0.7195058E-07 Eh
   *** GEOMETRY OPTIMIZATION CONVERGED AFTER 7 ITERATIONS ***

 final structure:
================
9
 xtb: 6.5.0 (97a52f5)
O            0.78645194802846        0.29241035506316       -0.88665157732929
C            0.25357228368383        0.19643810965485        0.41816641789402
C           -1.25513747271873        0.04004446058027        0.31179516209415
H            0.49541624893938        1.10057067374730        0.99646648607682
H            0.68275078747288       -0.67044855178621        0.94230514721973
H           -1.49277824087713       -0.86217346195344       -0.24467901177060
H           -1.67562509728756        0.89147525385399       -0.21578179599664
H           -1.69483369616772       -0.02261010747581        1.30326831817382
H            1.74191924892660        0.39188125831590       -0.83336814636201

          :  Hamiltonian                  GFN2-xTB          :
         :: total energy             -11.391865813146 Eh    ::
         :: gradient norm              0.000474114103 Eh/a0 ::
         :: HOMO-LUMO gap             12.552221303327 eV    ::
         :: SCC energy               -11.512943081799 Eh    ::
         :: -> dispersion             -0.002776538402 Eh    ::
         :: repulsion energy           0.121076793341 Eh    ::

    * Orbital Energies and Occupations

         #    Occupation            Energy/Eh            Energy/eV
      -------------------------------------------------------------
         1        2.0000           -0.6852118             -18.6456
         2        2.0000           -0.6262798             -17.0419
         3        2.0000           -0.5795232             -15.7696
         4        2.0000           -0.5671001             -15.4316
         5        2.0000           -0.5306011             -14.4384
         6        2.0000           -0.5061374             -13.7727
         7        2.0000           -0.4657600             -12.6740
         8        2.0000           -0.4595780             -12.5058
         9        2.0000           -0.4503655             -12.2551
        10        2.0000           -0.4079358             -11.1005 (HOMO)
        11                          0.0533499               1.4517 (LUMO)
        12                          0.1264568               3.4411
        13                          0.1321926               3.5971
        14                          0.1527152               4.1556
        15                          0.1818925               4.9495
        16                          0.2123169               5.7774
        17                          0.2642882               7.1916
        18                          0.2710418               7.3754
      -------------------------------------------------------------
                  HL-Gap            0.4612856 Eh           12.5522 eV

     #   Z          covCN         q      C6AA      α(0)
     1   8 O        1.656    -0.442    21.674     6.285
     2   6 C        3.672     0.092    19.279     6.293
     3   6 C        3.751    -0.111    22.677     6.791
     4   1 H        0.923     0.015     2.818     2.625
     5   1 H        0.923     0.015     2.817     2.625
     6   1 H        0.925     0.054     2.267     2.355
     7   1 H        0.925     0.055     2.260     2.351
     8   1 H        0.925     0.039     2.461     2.453
     9   1 H        0.805     0.283     0.776     1.383

Wiberg/Mayer (AO) data.
largest (>0.10) Wiberg bond orders for each atom

     #   Z sym  total        # sym  WBO       # sym  WBO       # sym  WBO
 ---------------------------------------------------------------------------
     1   8 O    1.951 --     2 C    0.994     9 H    0.907
     2   6 C    3.958 --     3 C    1.018     1 O    0.994     5 H    0.973
                             4 H    0.973
     3   6 C    3.994 --     2 C    1.018     8 H    0.986     6 H    0.986
                             7 H    0.986
     4   1 H    1.000 --     2 C    0.973
     5   1 H    1.000 --     2 C    0.973
     6   1 H    0.997 --     3 C    0.986
     7   1 H    0.997 --     3 C    0.986
     8   1 H    0.998 --     3 C    0.986
     9   1 H    0.920 --     1 O    0.907
 ---------------------------------------------------------------------------

molecular dipole:
                 x           y           z       tot (Debye)
 q only:        0.161       0.005       0.405
   full:        0.367       0.022       0.570       1.724

           -------------------------------------------------
          | TOTAL ENERGY              -11.391865813146 Eh   |
          | GRADIENT NORM               0.000474114103 Eh/α |
          | HOMO-LUMO GAP              12.552221303327 eV   |
           -------------------------------------------------

 * finished run on 2025/02/19 at 10:41:59.121
