                               Psi4 1.9.1 release

  ==> Input File <==

--------------------------------------------------------------------------
molecule {
0 1
 O    1.119939    0.050104   -0.630278
 C    0.252781    0.591649    0.338707
 C   -1.145805   -0.014806    0.284281
 H    0.212825    1.661505    0.122297
 H    0.676147    0.460228    1.345871
 H   -1.567356    0.109760   -0.710114
 H   -1.792624    0.476544    1.005666
 H   -1.110175   -1.078384    0.516141
 H    1.196000   -0.899011   -0.481049
}
memory 4GB
set_num_threads(2)
psi4_io.set_default_path("/scratch/liuchw/Psi4-ethanol")
set freeze_core True
E, wfn = energy('wb97x-d/6-311+G*',return_wfn=True)
oeprop(wfn,"WIBERG_LOWDIN_INDICES")
clean()
--------------------------------------------------------------------------

    Molecular point group: c1

    Geometry (in Angstrom), charge = 0, multiplicity = 1:

       Center              X                  Y                   Z               Mass
    ------------   -----------------  -----------------  -----------------  -----------------
         O            1.015833886757    -0.133639306959    -0.613065425359    15.994914619570
         C            0.148675886757     0.407905693041     0.355919574641    12.000000000000
         C           -1.249910113243    -0.198549306959     0.301493574641    12.000000000000
         H            0.108719886757     1.477761693041     0.139509574641     1.007825032230
         H            0.572041886757     0.276484693041     1.363083574641     1.007825032230
         H           -1.671461113243    -0.073983306959    -0.692901425359     1.007825032230
         H           -1.896729113243     0.292800693041     1.022878574641     1.007825032230
         H           -1.214280113243    -1.262127306959     0.533353574641     1.007825032230
         H            1.091894886757    -1.082754306959    -0.463836425359     1.007825032230

  Charge       = 0
  Multiplicity = 1
  Basis Set: 6-311+G*
    Blend: 6-311+G*
  Basis Set: (6-311+G* AUX)
    Blend: HEAVY-AUG-CC-PVTZ-JKFIT

    Orbital Energies [Eh]
    ---------------------

    Doubly Occupied:

       1A    -19.246138     2A    -10.328254     3A    -10.274216
       4A     -1.131040     5A     -0.850937     6A     -0.725603
       7A     -0.598881     8A     -0.547725     9A     -0.524374
      10A     -0.471095    11A     -0.461888    12A     -0.412155
      13A     -0.359959

  @DF-RKS Final Energy:  -155.02696930153155

   => Energetics <=

    Nuclear Repulsion Energy =             81.9325802458411658
    One-Electron Energy =                -371.9932410845535173
    Two-Electron Energy =                 149.9040400822910328
    DFT Exchange-Correlation Energy =     -14.8677719066364595
    Empirical Dispersion Energy =          -0.0025766384737869
    VV10 Nonlocal Energy =                  0.0000000000000000
    Total Energy =                       -155.0269693015315511
 Dipole X            :          2.4264567           -2.8167274           -0.3902707
 Dipole Y            :         -0.0375727           -0.3492100           -0.3867827
 Dipole Z            :         -1.2474600            1.7802032            0.5327432
 Magnitude           :                                                    0.7653283
*** Psi4 exiting successfully. Buy a developer a beer!
