   * xtb version 6.5.0 (97a52f5) compiled by 'conda@d2599ee0d4f4' on 2022-05-15
          program call               : /home/liuchw/anaconda3/envs/xtbenv/bin/xtb --gfn 2 --chrg 0 --uhf 0 ethanol-opt-1-2-090_preQMOPTprefit_xyzformat.xyz --opt --input xtb-opt-1-2-090_constr.txt

   ID    Z sym.   atoms
    1    8 O      1
    2    6 C      2, 3
    3    1 H      4-9
constraining angle 9 1 2 4 to   89.6652000°, actual value:   89.6652413°
constraining angle 4 2 3 6 to   60.9742000°, actual value:   60.9742370°

          :  Hamiltonian                  GFN2-xTB          :
 * total energy  :   -11.3902253 Eh     change       -0.7483791E-10 Eh
 * total energy  :   -11.3908806 Eh     change       -0.6552400E-03 Eh
 * total energy  :   -11.3909521 Eh     change       -0.7156224E-04 Eh
 * total energy  :   -11.3909596 Eh     change       -0.7504397E-05 Eh
 * total energy  :   -11.3909609 Eh     change       -0.1254984E-05 Eh
 * total energy  :   -11.3909613 Eh     change       -0.3550893E-06 Eh
   *** GEOMETRY OPTIMIZATION CONVERGED AFTER 6 ITERATIONS ***

 final structure:
================
9
 xtb: 6.5.0 (97a52f5)
O            0.90836737718330       -0.28215261123198       -0.68473162719806
C            0.21794667998306        0.44634669898138        0.31353044680358
C           -1.24662362541706        0.02917129131186        0.30264949997990
H            0.29038740636033        1.52262865784049        0.09604875723162
H            0.64987556857480        0.25924915971285        1.30370561872505
H           -1.67113619836092        0.21561391273581       -0.67960674388942
H           -1.80102561481868        0.59519938363505        1.04614539517512
H           -1.33285905405130       -1.03190540378253        0.52061719080250
H            1.82680045054648       -0.39656310920292       -0.42683553763030

          :  Hamiltonian                  GFN2-xTB          :
         :: total energy             -11.390961257911 Eh    ::
         :: gradient norm              0.000139142096 Eh/a0 ::
         :: HOMO-LUMO gap             12.438676262522 eV    ::
         :: SCC energy               -11.512246073006 Eh    ::
         :: -> dispersion             -0.002773662436 Eh    ::
         :: repulsion energy           0.121283648939 Eh    ::

    * Orbital Energies and Occupations

         #    Occupation            Energy/Eh            Energy/eV
      -------------------------------------------------------------
         1        2.0000           -0.6844966             -18.6261
         2        2.0000           -0.6257592             -17.0278
         3        2.0000           -0.5797565             -15.7760
         4        2.0000           -0.5674983             -15.4424
         5        2.0000           -0.5292074             -14.4005
         6        2.0000           -0.5041182             -13.7178
         7        2.0000           -0.4705774             -12.8051
         8        2.0000           -0.4607474             -12.5376
         9        2.0000           -0.4457797             -12.1303
        10        2.0000           -0.4076475             -11.0927 (HOMO)
        11                          0.0494654               1.3460 (LUMO)
        12                          0.1251441               3.4053
        13                          0.1279665               3.4821
        14                          0.1545668               4.2060
        15                          0.1819431               4.9509
        16                          0.2120447               5.7700
        17                          0.2585885               7.0366
        18                          0.2849638               7.7543
      -------------------------------------------------------------
                  HL-Gap            0.4571129 Eh           12.4387 eV

     #   Z          covCN         q      C6AA      α(0)
     1   8 O        1.655    -0.443    21.710     6.290
     2   6 C        3.672     0.090    19.309     6.298
     3   6 C        3.751    -0.112    22.699     6.795
     4   1 H        0.923     0.021     2.711     2.575
     5   1 H        0.924     0.014     2.825     2.628
     6   1 H        0.925     0.056     2.249     2.345
     7   1 H        0.925     0.038     2.470     2.458
     8   1 H        0.925     0.051     2.309     2.376
     9   1 H        0.805     0.284     0.771     1.379

Wiberg/Mayer (AO) data.
largest (>0.10) Wiberg bond orders for each atom

     #   Z sym  total        # sym  WBO       # sym  WBO       # sym  WBO
 ---------------------------------------------------------------------------
     1   8 O    1.950 --     2 C    0.992     9 H    0.907
     2   6 C    3.958 --     3 C    1.016     1 O    0.992     5 H    0.977
                             4 H    0.971
     3   6 C    3.994 --     2 C    1.016     8 H    0.987     7 H    0.986
                             6 H    0.986
     4   1 H    1.000 --     2 C    0.971
     5   1 H    1.000 --     2 C    0.977
     6   1 H    0.997 --     3 C    0.986
     7   1 H    0.999 --     3 C    0.986
     8   1 H    0.997 --     3 C    0.987
     9   1 H    0.919 --     1 O    0.907
 ---------------------------------------------------------------------------

molecular dipole:
                 x           y           z       tot (Debye)
 q only:        0.113       0.129       0.427
   full:        0.290       0.192       0.608       1.780

           -------------------------------------------------
          | TOTAL ENERGY              -11.390961257911 Eh   |
          | GRADIENT NORM               0.000139142096 Eh/α |
          | HOMO-LUMO GAP              12.438676262522 eV   |
           -------------------------------------------------

 * finished run on 2025/02/19 at 10:39:39.823
