   * xtb version 6.5.0 (97a52f5) compiled by 'conda@d2599ee0d4f4' on 2022-05-15
          program call               : /home/liuchw/anaconda3/envs/xtbenv/bin/xtb --gfn 2 --chrg 0 --uhf 0 ethanol-opt-1-2-030_preQMOPTprefit_xyzformat.xyz --opt --input xtb-opt-1-2-030_constr.txt

   ID    Z sym.   atoms
    1    8 O      1
    2    6 C      2, 3
    3    1 H      4-9
constraining angle 9 1 2 4 to   29.6754000°, actual value:   29.6753808°
constraining angle 4 2 3 6 to   60.9769000°, actual value:   60.9769407°

          :  Hamiltonian                  GFN2-xTB          :
 * total energy  :   -11.3902419 Eh     change       -0.1269029E-10 Eh
 * total energy  :   -11.3908938 Eh     change       -0.6519078E-03 Eh
 * total energy  :   -11.3909609 Eh     change       -0.6704433E-04 Eh
 * total energy  :   -11.3909698 Eh     change       -0.8877847E-05 Eh
 * total energy  :   -11.3909716 Eh     change       -0.1795586E-05 Eh
 * total energy  :   -11.3909723 Eh     change       -0.7137019E-06 Eh
   *** GEOMETRY OPTIMIZATION CONVERGED AFTER 6 ITERATIONS ***

 final structure:
================
9
 xtb: 6.5.0 (97a52f5)
O            0.95434077805504       -0.49480143090176       -0.46938636185648
C            0.23132801522842        0.36822750437576        0.38853029301439
C           -1.25079097604635        0.03802916577466        0.29392254354700
H            0.40355458552680        1.41818574119061        0.12119070445193
H            0.57764603028700        0.22627636666886        1.42417103823176
H           -1.60043436921367        0.18807936951354       -0.72403942451404
H           -1.81885791704837        0.67327433842715        0.96765797739231
H           -1.40915989644196       -1.00277245325291        0.56147301796111
H            1.75410673965308       -0.05690960179591       -0.77199778822798

          :  Hamiltonian                  GFN2-xTB          :
         :: total energy             -11.390972278782 Eh    ::
         :: gradient norm              0.000359137970 Eh/a0 ::
         :: HOMO-LUMO gap             12.425877816586 eV    ::
         :: SCC energy               -11.512252066644 Eh    ::
         :: -> dispersion             -0.002774089604 Eh    ::
         :: repulsion energy           0.121278704718 Eh    ::

    * Orbital Energies and Occupations

         #    Occupation            Energy/Eh            Energy/eV
      -------------------------------------------------------------
         1        2.0000           -0.6845458             -18.6274
         2        2.0000           -0.6258089             -17.0291
         3        2.0000           -0.5800024             -15.7827
         4        2.0000           -0.5677290             -15.4487
         5        2.0000           -0.5289875             -14.3945
         6        2.0000           -0.5041471             -13.7185
         7        2.0000           -0.4707765             -12.8105
         8        2.0000           -0.4609477             -12.5430
         9        2.0000           -0.4460789             -12.1384
        10        2.0000           -0.4074307             -11.0868 (HOMO)
        11                          0.0492119               1.3391 (LUMO)
        12                          0.1258710               3.4251
        13                          0.1282651               3.4903
        14                          0.1534981               4.1769
        15                          0.1818199               4.9476
        16                          0.2124890               5.7821
        17                          0.2593704               7.0578
        18                          0.2840045               7.7282
      -------------------------------------------------------------
                  HL-Gap            0.4566426 Eh           12.4259 eV

     #   Z          covCN         q      C6AA      α(0)
     1   8 O        1.655    -0.443    21.710     6.290
     2   6 C        3.672     0.091    19.298     6.296
     3   6 C        3.751    -0.112    22.697     6.794
     4   1 H        0.924     0.013     2.838     2.635
     5   1 H        0.923     0.020     2.727     2.583
     6   1 H        0.925     0.051     2.306     2.374
     7   1 H        0.925     0.039     2.464     2.455
     8   1 H        0.925     0.056     2.244     2.343
     9   1 H        0.805     0.284     0.771     1.379

Wiberg/Mayer (AO) data.
largest (>0.10) Wiberg bond orders for each atom

     #   Z sym  total        # sym  WBO       # sym  WBO       # sym  WBO
 ---------------------------------------------------------------------------
     1   8 O    1.950 --     2 C    0.992     9 H    0.907
     2   6 C    3.958 --     3 C    1.017     1 O    0.992     4 H    0.977
                             5 H    0.971
     3   6 C    3.994 --     2 C    1.017     6 H    0.987     7 H    0.986
                             8 H    0.986
     4   1 H    1.000 --     2 C    0.977
     5   1 H    1.000 --     2 C    0.971
     6   1 H    0.997 --     3 C    0.987
     7   1 H    0.998 --     3 C    0.986
     8   1 H    0.997 --     3 C    0.986
     9   1 H    0.919 --     1 O    0.907
 ---------------------------------------------------------------------------

molecular dipole:
                 x           y           z       tot (Debye)
 q only:        0.040       0.445       0.103
   full:        0.186       0.662       0.128       1.778

           -------------------------------------------------
          | TOTAL ENERGY              -11.390972278782 Eh   |
          | GRADIENT NORM               0.000359137970 Eh/α |
          | HOMO-LUMO GAP              12.425877816586 eV   |
           -------------------------------------------------

 * finished run on 2025/02/19 at 10:40:09.092
