                               Psi4 1.9.1 release

  ==> Input File <==

--------------------------------------------------------------------------
molecule {
0 1
 O    0.954341   -0.494801   -0.469386
 C    0.231328    0.368228    0.388530
 C   -1.250791    0.038029    0.293923
 H    0.403555    1.418186    0.121191
 H    0.577646    0.226276    1.424171
 H   -1.600434    0.188079   -0.724039
 H   -1.818858    0.673274    0.967658
 H   -1.409160   -1.002772    0.561473
 H    1.754107   -0.056910   -0.771998
}
memory 4GB
set_num_threads(2)
psi4_io.set_default_path("/scratch/liuchw/Psi4-ethanol")
set freeze_core True
E, wfn = energy('wb97x-d/6-311+G*',return_wfn=True)
oeprop(wfn,"WIBERG_LOWDIN_INDICES")
clean()
--------------------------------------------------------------------------

    Molecular point group: c1

    Geometry (in Angstrom), charge = 0, multiplicity = 1:

       Center              X                  Y                   Z               Mass
    ------------   -----------------  -----------------  -----------------  -----------------
         O            0.934326087541    -0.460446033759    -0.518742264884    15.994914619570
         C            0.211313087541     0.402582966241     0.339173735116    12.000000000000
         C           -1.270805912459     0.072383966241     0.244566735116    12.000000000000
         H            0.383540087541     1.452540966241     0.071834735116     1.007825032230
         H            0.557631087541     0.260630966241     1.374814735116     1.007825032230
         H           -1.620448912459     0.222433966241    -0.773395264884     1.007825032230
         H           -1.838872912459     0.707628966241     0.918301735116     1.007825032230
         H           -1.429174912459    -0.968417033759     0.512116735116     1.007825032230
         H            1.734092087541    -0.022555033759    -0.821354264884     1.007825032230

  Charge       = 0
  Multiplicity = 1
  Basis Set: 6-311+G*
    Blend: 6-311+G*
  Basis Set: (6-311+G* AUX)
    Blend: HEAVY-AUG-CC-PVTZ-JKFIT

    Orbital Energies [Eh]
    ---------------------

    Doubly Occupied:

       1A    -19.245606     2A    -10.328875     3A    -10.267093
       4A     -1.128649     5A     -0.850411     6A     -0.710654
       7A     -0.614505     8A     -0.555515     9A     -0.489974
      10A     -0.475270    11A     -0.453660    12A     -0.414932
      13A     -0.358635

  @DF-RKS Final Energy:  -155.02630620149492

   => Energetics <=

    Nuclear Repulsion Energy =             81.8639911382883128
    One-Electron Energy =                -371.9332020983021039
    Two-Electron Energy =                 149.9112515057822748
    DFT Exchange-Correlation Energy =     -14.8659105623296011
    Empirical Dispersion Energy =          -0.0024361849338401
    VV10 Nonlocal Energy =                  0.0000000000000000
    Total Energy =                       -155.0263062014949185
 Dipole X            :          2.2715976           -2.0703494            0.2012482
 Dipole Y            :         -0.8548119            1.5467335            0.6919216
 Dipole Z            :         -1.0449968            1.1996418            0.1546450
 Magnitude           :                                                    0.7370017
*** Psi4 exiting successfully. Buy a developer a beer!
