                               Psi4 1.9.1 release

  ==> Input File <==

--------------------------------------------------------------------------
molecule {
0 1
 O    0.960739   -0.616322   -0.262914
 C    0.207786    0.464310    0.252063
 C   -1.261955    0.040927    0.303671
 H    0.332985    1.346593   -0.391598
 H    0.569685    0.726454    1.256323
 H   -1.881369    0.682350   -0.315746
 H   -1.644812    0.060173    1.319462
 H   -1.332139   -0.975855   -0.073158
 H    1.890814   -0.371041   -0.296582
}
memory 4GB
set_num_threads(2)
psi4_io.set_default_path("/scratch/liuchw/Psi4-ethanol")
set freeze_core True
E, wfn = energy('wb97x-d/6-311+G*',return_wfn=True)
oeprop(wfn,"WIBERG_LOWDIN_INDICES")
clean()
--------------------------------------------------------------------------

    Molecular point group: c1

    Geometry (in Angstrom), charge = 0, multiplicity = 1:

       Center              X                  Y                   Z               Mass
    ------------   -----------------  -----------------  -----------------  -----------------
         O            0.946927290352    -0.566041513834    -0.349225651743    15.994914619570
         C            0.193974290352     0.514590486166     0.165751348257    12.000000000000
         C           -1.275766709648     0.091207486166     0.217359348257    12.000000000000
         H            0.319173290352     1.396873486166    -0.477909651743     1.007825032230
         H            0.555873290352     0.776734486166     1.170011348257     1.007825032230
         H           -1.895180709648     0.732630486166    -0.402057651743     1.007825032230
         H           -1.658623709648     0.110453486166     1.233150348257     1.007825032230
         H           -1.345950709648    -0.925574513834    -0.159469651743     1.007825032230
         H            1.877002290352    -0.320760513834    -0.382893651743     1.007825032230

  Charge       = 0
  Multiplicity = 1
  Basis Set: 6-311+G*
    Blend: 6-311+G*
  Basis Set: (6-311+G* AUX)
    Blend: HEAVY-AUG-CC-PVTZ-JKFIT

    Orbital Energies [Eh]
    ---------------------

    Doubly Occupied:

       1A    -19.245607     2A    -10.328493     3A    -10.266024
       4A     -1.128984     5A     -0.847889     6A     -0.710410
       7A     -0.614364     8A     -0.556933     9A     -0.488228
      10A     -0.466011    11A     -0.457157    12A     -0.417181
      13A     -0.356835

  @DF-RKS Final Energy:  -155.02199051025181

   => Energetics <=

    Nuclear Repulsion Energy =             81.8330094694974264
    One-Electron Energy =                -371.8819746446559407
    Two-Electron Energy =                 149.8954326791698577
    DFT Exchange-Correlation Energy =     -14.8661250795439770
    Empirical Dispersion Energy =          -0.0023329347191972
    VV10 Nonlocal Energy =                  0.0000000000000000
    Total Energy =                       -155.0219905102518112
 Dipole X            :          2.2812048           -2.0088591            0.2723457
 Dipole Y            :         -1.0326645            1.6569358            0.6242712
 Dipole Z            :         -0.7163303            0.9178212            0.2014909
 Magnitude           :                                                    0.7102713
*** Psi4 exiting successfully. Buy a developer a beer!
