   * xtb version 6.5.0 (97a52f5) compiled by 'conda@d2599ee0d4f4' on 2022-05-15
          program call               : /home/liuchw/anaconda3/envs/xtbenv/bin/xtb --gfn 2 --chrg 0 --uhf 0 ethanol-opt-2-3-031_preQMOPTprefit_xyzformat.xyz --opt --input xtb-opt-2-3-031_constr.txt

   ID    Z sym.   atoms
    1    8 O      1
    2    6 C      2, 3
    3    1 H      4-9
constraining angle 4 2 3 6 to   30.9941000°, actual value:   30.9940831°
constraining angle 9 1 2 4 to   59.6720000°, actual value:   59.6719584°

          :  Hamiltonian                  GFN2-xTB          :
 * total energy  :   -11.3895106 Eh     change       -0.1184652E-10 Eh
 * total energy  :   -11.3901972 Eh     change       -0.6865618E-03 Eh
 * total energy  :   -11.3902540 Eh     change       -0.5684671E-04 Eh
 * total energy  :   -11.3902625 Eh     change       -0.8461870E-05 Eh
 * total energy  :   -11.3902666 Eh     change       -0.4103255E-05 Eh
   *** GEOMETRY OPTIMIZATION CONVERGED AFTER 5 ITERATIONS ***

 final structure:
================
9
 xtb: 6.5.0 (97a52f5)
O            0.93266882700460       -0.52261140070096       -0.44710832291556
C            0.21383895597656        0.43506627177748        0.30869197093772
C           -1.25820133454978        0.03625325621396        0.29721974009691
H            0.34444669268809        1.42759168830582       -0.14441495411661
H            0.59445354476606        0.46065160874137        1.33905125813893
H           -1.77050072770275        0.46443007871679       -0.55904396214422
H           -1.75216427915864        0.38877859271513        1.19893052931710
H           -1.32812345604165       -1.04617927640952        0.25360624954166
H            1.86531477701751       -0.28639181936008       -0.45541051885593

          :  Hamiltonian                  GFN2-xTB          :
         :: total energy             -11.390266570417 Eh    ::
         :: gradient norm              0.000838829427 Eh/a0 ::
         :: HOMO-LUMO gap             12.433465047267 eV    ::
         :: SCC energy               -11.511162042037 Eh    ::
         :: -> dispersion             -0.002770195611 Eh    ::
         :: repulsion energy           0.120891860707 Eh    ::

    * Orbital Energies and Occupations

         #    Occupation            Energy/Eh            Energy/eV
      -------------------------------------------------------------
         1        2.0000           -0.6846898             -18.6314
         2        2.0000           -0.6256306             -17.0243
         3        2.0000           -0.5794357             -15.7672
         4        2.0000           -0.5666128             -15.4183
         5        2.0000           -0.5305890             -14.4381
         6        2.0000           -0.5049107             -13.7393
         7        2.0000           -0.4640904             -12.6285
         8        2.0000           -0.4605287             -12.5316
         9        2.0000           -0.4505463             -12.2600
        10        2.0000           -0.4073430             -11.0844 (HOMO)
        11                          0.0495784               1.3491 (LUMO)
        12                          0.1193076               3.2465
        13                          0.1329615               3.6181
        14                          0.1445782               3.9342
        15                          0.1854471               5.0463
        16                          0.2027800               5.5179
        17                          0.2721550               7.4057
        18                          0.2848576               7.7514
      -------------------------------------------------------------
                  HL-Gap            0.4569214 Eh           12.4335 eV

     #   Z          covCN         q      C6AA      α(0)
     1   8 O        1.655    -0.443    21.710     6.290
     2   6 C        3.671     0.091    19.303     6.297
     3   6 C        3.751    -0.112    22.699     6.794
     4   1 H        0.923     0.016     2.788     2.611
     5   1 H        0.923     0.016     2.794     2.614
     6   1 H        0.925     0.047     2.363     2.404
     7   1 H        0.925     0.039     2.464     2.455
     8   1 H        0.925     0.065     2.144     2.290
     9   1 H        0.805     0.281     0.779     1.387

Wiberg/Mayer (AO) data.
largest (>0.10) Wiberg bond orders for each atom

     #   Z sym  total        # sym  WBO       # sym  WBO       # sym  WBO
 ---------------------------------------------------------------------------
     1   8 O    1.949 --     2 C    0.992     9 H    0.907
     2   6 C    3.958 --     3 C    1.015     1 O    0.992     4 H    0.975
                             5 H    0.974
     3   6 C    3.994 --     2 C    1.015     6 H    0.989     7 H    0.988
                             8 H    0.983
     4   1 H    1.000 --     2 C    0.975
     5   1 H    1.000 --     2 C    0.974
     6   1 H    0.998 --     3 C    0.989
     7   1 H    0.998 --     3 C    0.988
     8   1 H    0.996 --     3 C    0.983
     9   1 H    0.921 --     1 O    0.907
 ---------------------------------------------------------------------------

molecular dipole:
                 x           y           z       tot (Debye)
 q only:        0.094       0.352       0.229
   full:        0.273       0.531       0.311       1.712

           -------------------------------------------------
          | TOTAL ENERGY              -11.390266570417 Eh   |
          | GRADIENT NORM               0.000838829427 Eh/α |
          | HOMO-LUMO GAP              12.433465047267 eV   |
           -------------------------------------------------

 * finished run on 2025/02/19 at 10:42:53.525
