                               Psi4 1.9.1 release

  ==> Input File <==

--------------------------------------------------------------------------
molecule {
0 1
 O    1.197651    0.038748   -0.525891
 C    0.272527    0.608232    0.375397
 C   -1.107429   -0.030579    0.288333
 H    0.205008    1.667304    0.110698
 H    0.658276    0.524304    1.402194
 H   -1.492687    0.041879   -0.726814
 H   -1.795808    0.475434    0.959592
 H   -1.060344   -1.082009    0.570586
 H    0.964540   -0.885726   -0.662575
}
memory 4GB
set_num_threads(2)
psi4_io.set_default_path("/scratch/liuchw/Psi4-ethanol")
set freeze_core True
E, wfn = energy('wb97x-d/6-311+G*',return_wfn=True)
oeprop(wfn,"WIBERG_LOWDIN_INDICES")
clean()
--------------------------------------------------------------------------

    Molecular point group: c1

    Geometry (in Angstrom), charge = 0, multiplicity = 1:

       Center              X                  Y                   Z               Mass
    ------------   -----------------  -----------------  -----------------  -----------------
         O            1.054373582975    -0.141492152951    -0.552384267983    15.994914619570
         C            0.129249582975     0.427991847049     0.348903732017    12.000000000000
         C           -1.250706417025    -0.210819152951     0.261839732017    12.000000000000
         H            0.061730582975     1.487063847049     0.084204732017     1.007825032230
         H            0.514998582975     0.344063847049     1.375700732017     1.007825032230
         H           -1.635964417025    -0.138361152951    -0.753307267983     1.007825032230
         H           -1.939085417025     0.295193847049     0.933098732017     1.007825032230
         H           -1.203621417025    -1.262249152951     0.544092732017     1.007825032230
         H            0.821262582975    -1.065966152951    -0.689068267983     1.007825032230

  Charge       = 0
  Multiplicity = 1
  Basis Set: 6-311+G*
    Blend: 6-311+G*
  Basis Set: (6-311+G* AUX)
    Blend: HEAVY-AUG-CC-PVTZ-JKFIT

    Orbital Energies [Eh]
    ---------------------

    Doubly Occupied:

       1A    -19.244653     2A    -10.328092     3A    -10.280023
       4A     -1.129654     5A     -0.853655     6A     -0.729524
       7A     -0.586319     8A     -0.553930     9A     -0.537253
      10A     -0.468323    11A     -0.464029    12A     -0.413921
      13A     -0.358366

  @DF-RKS Final Energy:  -155.02590866298749

   => Energetics <=

    Nuclear Repulsion Energy =             82.0143002406767465
    One-Electron Energy =                -372.1236024820678949
    Two-Electron Energy =                 149.9536365198744647
    DFT Exchange-Correlation Energy =     -14.8676326344702900
    Empirical Dispersion Energy =          -0.0026103070004981
    VV10 Nonlocal Energy =                  0.0000000000000000
    Total Energy =                       -155.0259086629874901
 Dipole X            :          2.4996203           -3.1642176           -0.6645973
 Dipole Y            :         -0.0403237           -0.3196585           -0.3599822
 Dipole Z            :         -1.0772506            1.3986015            0.3213509
 Magnitude           :                                                    0.8213058
*** Psi4 exiting successfully. Buy a developer a beer!
