                               Psi4 1.9.1 release

  ==> Input File <==

--------------------------------------------------------------------------
molecule {
0 1
 O    0.770806    0.479034   -0.866334
 C    0.261155    0.147005    0.407317
 C   -1.257783    0.038820    0.310700
 H    0.539248    0.910010    1.149760
 H    0.686124   -0.808611    0.749721
 H   -1.560544   -0.972070    0.053988
 H   -1.611311    0.724127   -0.453662
 H   -1.716135    0.299404    1.261078
 H    1.730175    0.539870   -0.821048
}
memory 4GB
set_num_threads(2)
psi4_io.set_default_path("/scratch/liuchw/Psi4-ethanol")
set freeze_core True
E, wfn = energy('wb97x-d/6-311+G*',return_wfn=True)
oeprop(wfn,"WIBERG_LOWDIN_INDICES")
clean()
--------------------------------------------------------------------------

    Molecular point group: c1

    Geometry (in Angstrom), charge = 0, multiplicity = 1:

       Center              X                  Y                   Z               Mass
    ------------   -----------------  -----------------  -----------------  -----------------
         O            0.805081854745     0.249022496177    -0.794970294635    15.994914619570
         C            0.295430854745    -0.083006503823     0.478680705365    12.000000000000
         C           -1.223507145255    -0.191191503823     0.382063705365    12.000000000000
         H            0.573523854745     0.679998496177     1.221123705365     1.007825032230
         H            0.720399854745    -1.038622503823     0.821084705365     1.007825032230
         H           -1.526268145255    -1.202081503823     0.125351705365     1.007825032230
         H           -1.577035145255     0.494115496177    -0.382298294635     1.007825032230
         H           -1.681859145255     0.069392496177     1.332441705365     1.007825032230
         H            1.764450854745     0.309858496177    -0.749684294635     1.007825032230

  Charge       = 0
  Multiplicity = 1
  Basis Set: 6-311+G*
    Blend: 6-311+G*
  Basis Set: (6-311+G* AUX)
    Blend: HEAVY-AUG-CC-PVTZ-JKFIT

    Orbital Energies [Eh]
    ---------------------

    Doubly Occupied:

       1A    -19.246461     2A    -10.328631     3A    -10.266746
       4A     -1.130067     5A     -0.849277     6A     -0.709849
       7A     -0.615105     8A     -0.556823     9A     -0.489900
      10A     -0.469788    11A     -0.454680    12A     -0.416807
      13A     -0.357966

  @DF-RKS Final Energy:  -155.02455240991304

   => Energetics <=

    Nuclear Repulsion Energy =             81.8820520175802500
    One-Electron Energy =                -371.9692266256596440
    Two-Electron Energy =                 149.9310431003785880
    DFT Exchange-Correlation Energy =     -14.8660323957268758
    Empirical Dispersion Energy =          -0.0023885064853560
    VV10 Nonlocal Energy =                  0.0000000000000000
    Total Energy =                       -155.0245524099130421
 Dipole X            :          2.0168456           -1.6149425            0.4019031
 Dipole Y            :          0.5452822           -0.6431628           -0.0978806
 Dipole Z            :         -1.6286994            2.2161259            0.5874265
 Magnitude           :                                                    0.7184543
*** Psi4 exiting successfully. Buy a developer a beer!
