                               Psi4 1.9.1 release

  ==> Input File <==

--------------------------------------------------------------------------
molecule {
0 1
 O    1.131038   -0.479764   -0.241021
 C    0.276386    0.373481    0.493003
 C   -1.196665    0.038167    0.259242
 H    0.448150    1.423181    0.226653
 H    0.528132    0.227542    1.546715
 H   -1.455440    0.175506   -0.788801
 H   -1.826042    0.683837    0.865485
 H   -1.386205   -0.997612    0.527359
 H    1.322379   -0.086749   -1.097111
}
memory 4GB
set_num_threads(2)
psi4_io.set_default_path("/scratch/liuchw/Psi4-ethanol")
set freeze_core True
E, wfn = energy('wb97x-d/6-311+G*',return_wfn=True)
oeprop(wfn,"WIBERG_LOWDIN_INDICES")
clean()
--------------------------------------------------------------------------

    Molecular point group: c1

    Geometry (in Angstrom), charge = 0, multiplicity = 1:

       Center              X                  Y                   Z               Mass
    ------------   -----------------  -----------------  -----------------  -----------------
         O            1.029826970525    -0.451590792089    -0.381374743240    15.994914619570
         C            0.175174970525     0.401654207911     0.352649256760    12.000000000000
         C           -1.297876029475     0.066340207911     0.118888256760    12.000000000000
         H            0.346938970525     1.451354207911     0.086299256760     1.007825032230
         H            0.426920970525     0.255715207911     1.406361256760     1.007825032230
         H           -1.556651029475     0.203679207911    -0.929154743240     1.007825032230
         H           -1.927253029475     0.712010207911     0.725131256760     1.007825032230
         H           -1.487416029475    -0.969438792089     0.387005256760     1.007825032230
         H            1.221167970525    -0.058575792089    -1.237464743240     1.007825032230

  Charge       = 0
  Multiplicity = 1
  Basis Set: 6-311+G*
    Blend: 6-311+G*
  Basis Set: (6-311+G* AUX)
    Blend: HEAVY-AUG-CC-PVTZ-JKFIT

    Orbital Energies [Eh]
    ---------------------

    Doubly Occupied:

       1A    -19.245790     2A    -10.328898     3A    -10.268617
       4A     -1.129640     5A     -0.849221     6A     -0.719359
       7A     -0.609188     8A     -0.548347     9A     -0.505412
      10A     -0.475489    11A     -0.458221    12A     -0.411035
      13A     -0.359354

  @DF-RKS Final Energy:  -155.02585303960410

   => Energetics <=

    Nuclear Repulsion Energy =             81.7587030119436662
    One-Electron Energy =                -371.6913180290632681
    Two-Electron Energy =                 149.7761220563756126
    DFT Exchange-Correlation Energy =     -14.8668500444608895
    Empirical Dispersion Energy =          -0.0025100343992320
    VV10 Nonlocal Energy =                  0.0000000000000000
    Total Energy =                       -155.0258530396041010
 Dipole X            :          2.5149625           -2.7852348           -0.2702723
 Dipole Y            :         -0.8345405            1.4928542            0.6583137
 Dipole Z            :         -0.6748107            0.4089456           -0.2658651
 Magnitude           :                                                    0.7596764
*** Psi4 exiting successfully. Buy a developer a beer!
