   * xtb version 6.5.0 (97a52f5) compiled by 'conda@d2599ee0d4f4' on 2022-05-15
          program call               : /home/liuchw/anaconda3/envs/xtbenv/bin/xtb --gfn 2 --chrg 0 --uhf 0 ethanol-opt-2-3-001_preQMOPTprefit_xyzformat.xyz --opt --input xtb-opt-2-3-001_constr.txt

   ID    Z sym.   atoms
    1    8 O      1
    2    6 C      2, 3
    3    1 H      4-9
constraining angle 4 2 3 6 to    0.9755000°, actual value:    0.9755488°
constraining angle 9 1 2 4 to   59.6701000°, actual value:   59.6700872°

          :  Hamiltonian                  GFN2-xTB          :
 * total energy  :   -11.3876767 Eh     change       -0.5574208E-11 Eh
 * total energy  :   -11.3885240 Eh     change       -0.8473140E-03 Eh
 * total energy  :   -11.3885902 Eh     change       -0.6625621E-04 Eh
 * total energy  :   -11.3886003 Eh     change       -0.1006902E-04 Eh
 * total energy  :   -11.3886062 Eh     change       -0.5891222E-05 Eh
 * total energy  :   -11.3886065 Eh     change       -0.3472468E-06 Eh
 * total energy  :   -11.3886066 Eh     change       -0.1104040E-06 Eh
   *** GEOMETRY OPTIMIZATION CONVERGED AFTER 7 ITERATIONS ***

 final structure:
================
9
 xtb: 6.5.0 (97a52f5)
O            0.96073855770095       -0.61632237969388       -0.26291377976385
C            0.20778573099718        0.46431020734614        0.25206322789167
C           -1.26195504411967        0.04092708570681        0.30367133807288
H            0.33298534552544        1.34659289094839       -0.39159779103550
H            0.56968518401571        0.72645396370073        1.25632301287154
H           -1.88136938032726        0.68234954941350       -0.31574641131446
H           -1.64481213755948        0.06017319625320        1.31946175523931
H           -1.33213931563131       -0.97585470143300       -0.07315817111646
H            1.89081406939843       -0.37104081224189       -0.29658219084512

          :  Hamiltonian                  GFN2-xTB          :
         :: total energy             -11.388606646160 Eh    ::
         :: gradient norm              0.000283548453 Eh/a0 ::
         :: HOMO-LUMO gap             12.413166064583 eV    ::
         :: SCC energy               -11.509020811795 Eh    ::
         :: -> dispersion             -0.002767732463 Eh    ::
         :: repulsion energy           0.120413687139 Eh    ::

    * Orbital Energies and Occupations

         #    Occupation            Energy/Eh            Energy/eV
      -------------------------------------------------------------
         1        2.0000           -0.6850474             -18.6411
         2        2.0000           -0.6251951             -17.0124
         3        2.0000           -0.5795050             -15.7691
         4        2.0000           -0.5670959             -15.4315
         5        2.0000           -0.5300621             -14.4237
         6        2.0000           -0.5044298             -13.7262
         7        2.0000           -0.4636683             -12.6171
         8        2.0000           -0.4605633             -12.5326
         9        2.0000           -0.4507332             -12.2651
        10        2.0000           -0.4062476             -11.0546 (HOMO)
        11                          0.0499279               1.3586 (LUMO)
        12                          0.1145512               3.1171
        13                          0.1331494               3.6232
        14                          0.1338528               3.6423
        15                          0.1879867               5.1154
        16                          0.1929744               5.2511
        17                          0.2869911               7.8094
        18                          0.2902789               7.8989
      -------------------------------------------------------------
                  HL-Gap            0.4561755 Eh           12.4132 eV

     #   Z          covCN         q      C6AA      α(0)
     1   8 O        1.655    -0.442    21.685     6.286
     2   6 C        3.671     0.091    19.295     6.296
     3   6 C        3.750    -0.114    22.744     6.801
     4   1 H        0.923     0.015     2.804     2.619
     5   1 H        0.923     0.015     2.806     2.620
     6   1 H        0.925     0.042     2.426     2.435
     7   1 H        0.925     0.042     2.425     2.435
     8   1 H        0.925     0.069     2.092     2.262
     9   1 H        0.805     0.281     0.781     1.388

Wiberg/Mayer (AO) data.
largest (>0.10) Wiberg bond orders for each atom

     #   Z sym  total        # sym  WBO       # sym  WBO       # sym  WBO
 ---------------------------------------------------------------------------
     1   8 O    1.951 --     2 C    0.993     9 H    0.907
     2   6 C    3.957 --     3 C    1.012     1 O    0.993     5 H    0.975
                             4 H    0.975
     3   6 C    3.993 --     2 C    1.012     7 H    0.990     6 H    0.990
                             8 H    0.982
     4   1 H    1.000 --     2 C    0.975
     5   1 H    1.000 --     2 C    0.975
     6   1 H    0.998 --     3 C    0.990
     7   1 H    0.998 --     3 C    0.990
     8   1 H    0.995 --     3 C    0.982
     9   1 H    0.921 --     1 O    0.907
 ---------------------------------------------------------------------------

molecular dipole:
                 x           y           z       tot (Debye)
 q only:        0.082       0.380       0.135
   full:        0.258       0.574       0.185       1.667

           -------------------------------------------------
          | TOTAL ENERGY              -11.388606646160 Eh   |
          | GRADIENT NORM               0.000283548453 Eh/α |
          | HOMO-LUMO GAP              12.413166064583 eV   |
           -------------------------------------------------

 * finished run on 2025/02/19 at 10:43:13.958
