   * xtb version 6.5.0 (97a52f5) compiled by 'conda@d2599ee0d4f4' on 2022-05-15
          program call               : /home/liuchw/anaconda3/envs/xtbenv/bin/xtb --gfn 2 --chrg 0 --uhf 0 ethanol-opt-1-2-210_preQMOPTprefit_xyzformat.xyz --opt --input xtb-opt-1-2-210_constr.txt

   ID    Z sym.   atoms
    1    8 O      1
    2    6 C      2, 3
    3    1 H      4-9
constraining angle 9 1 2 4 to  209.6455000°, actual value: -150.3545256°
constraining angle 4 2 3 6 to   60.9828000°, actual value:   60.9828280°

          :  Hamiltonian                  GFN2-xTB          :
 * total energy  :   -11.3914605 Eh     change       -0.9876544E-12 Eh
 * total energy  :   -11.3932689 Eh     change       -0.1808414E-02 Eh
 * total energy  :   -11.3933715 Eh     change       -0.1025879E-03 Eh
 * total energy  :   -11.3933837 Eh     change       -0.1213240E-04 Eh
 * total energy  :   -11.3933855 Eh     change       -0.1865755E-05 Eh
 * total energy  :   -11.3933859 Eh     change       -0.3969081E-06 Eh
 * total energy  :   -11.3933860 Eh     change       -0.4415574E-07 Eh
   *** GEOMETRY OPTIMIZATION CONVERGED AFTER 7 ITERATIONS ***

 final structure:
================
9
 xtb: 6.5.0 (97a52f5)
O            1.19765075884126        0.03874826805421       -0.52589060761906
C            0.27252659883538        0.60823221406505        0.37539661269633
C           -1.10742873662457       -0.03057855448186        0.28833332229368
H            0.20500798878153        1.66730404167026        0.11069842704366
H            0.65827601490717        0.52430394116014        1.40219439981889
H           -1.49268722304539        0.04187935836546       -0.72681426802100
H           -1.79580835890979        0.47543448203225        0.95959193199932
H           -1.06034390295430       -1.08200928666069        0.57058605980487
H            0.96453985016870       -0.88572646420482       -0.66257487801669

          :  Hamiltonian                  GFN2-xTB          :
         :: total energy             -11.393385970975 Eh    ::
         :: gradient norm              0.000778502375 Eh/a0 ::
         :: HOMO-LUMO gap             12.721784028953 eV    ::
         :: SCC energy               -11.514222637195 Eh    ::
         :: -> dispersion             -0.002780983724 Eh    ::
         :: repulsion energy           0.120834756214 Eh    ::

    * Orbital Energies and Occupations

         #    Occupation            Energy/Eh            Energy/eV
      -------------------------------------------------------------
         1        2.0000           -0.6848161             -18.6348
         2        2.0000           -0.6263497             -17.0438
         3        2.0000           -0.5991059             -16.3025
         4        2.0000           -0.5477669             -14.9055
         5        2.0000           -0.5277399             -14.3605
         6        2.0000           -0.5253104             -14.2944
         7        2.0000           -0.4751814             -12.9303
         8        2.0000           -0.4698986             -12.7866
         9        2.0000           -0.4496166             -12.2347
        10        2.0000           -0.4070078             -11.0752 (HOMO)
        11                          0.0605091               1.6465 (LUMO)
        12                          0.1069504               2.9103
        13                          0.1400221               3.8102
        14                          0.1504908               4.0951
        15                          0.1623958               4.4190
        16                          0.2321546               6.3172
        17                          0.2429503               6.6110
        18                          0.2682406               7.2992
      -------------------------------------------------------------
                  HL-Gap            0.4675170 Eh           12.7218 eV

     #   Z          covCN         q      C6AA      α(0)
     1   8 O        1.655    -0.448    21.796     6.302
     2   6 C        3.672     0.083    19.423     6.316
     3   6 C        3.750    -0.118    22.831     6.815
     4   1 H        0.924     0.044     2.394     2.419
     5   1 H        0.923     0.023     2.692     2.566
     6   1 H        0.925     0.047     2.352     2.398
     7   1 H        0.925     0.043     2.415     2.430
     8   1 H        0.925     0.037     2.485     2.465
     9   1 H        0.805     0.289     0.757     1.366

Wiberg/Mayer (AO) data.
largest (>0.10) Wiberg bond orders for each atom

     #   Z sym  total        # sym  WBO       # sym  WBO       # sym  WBO
 ---------------------------------------------------------------------------
     1   8 O    1.951 --     2 C    0.996     9 H    0.900
     2   6 C    3.958 --     3 C    1.016     1 O    0.996     4 H    0.974
                             5 H    0.970
     3   6 C    3.996 --     2 C    1.016     6 H    0.986     8 H    0.986
                             7 H    0.985
     4   1 H    0.998 --     2 C    0.974
     5   1 H    0.999 --     2 C    0.970
     6   1 H    0.998 --     3 C    0.986
     7   1 H    0.998 --     3 C    0.985
     8   1 H    0.999 --     3 C    0.986
     9   1 H    0.917 --     1 O    0.900
 ---------------------------------------------------------------------------

molecular dipole:
                 x           y           z       tot (Debye)
 q only:       -0.504      -0.286       0.200
   full:       -0.656      -0.437       0.272       2.120

           -------------------------------------------------
          | TOTAL ENERGY              -11.393385970975 Eh   |
          | GRADIENT NORM               0.000778502375 Eh/α |
          | HOMO-LUMO GAP              12.721784028953 eV   |
           -------------------------------------------------

 * finished run on 2025/02/19 at 10:39:55.702
