                               Psi4 1.9.1 release

  ==> Input File <==

--------------------------------------------------------------------------
molecule {
0 1
 O    0.750561    0.675700   -0.793660
 C    0.268416    0.081693    0.395957
 C   -1.259892    0.042759    0.324219
 H    0.599283    0.667923    1.264965
 H    0.676341   -0.933736    0.498082
 H   -1.634233   -0.973913    0.395748
 H   -1.561426    0.454192   -0.635358
 H   -1.709698    0.638852    1.112088
 H    1.712385    0.704119   -0.770521
}
memory 4GB
set_num_threads(2)
psi4_io.set_default_path("/scratch/liuchw/Psi4-ethanol")
set freeze_core True
E, wfn = energy('wb97x-d/6-311+G*',return_wfn=True)
oeprop(wfn,"WIBERG_LOWDIN_INDICES")
clean()
--------------------------------------------------------------------------

    Molecular point group: c1

    Geometry (in Angstrom), charge = 0, multiplicity = 1:

       Center              X                  Y                   Z               Mass
    ------------   -----------------  -----------------  -----------------  -----------------
         O            0.790196757707     0.396324114093    -0.746467858036    15.994914619570
         C            0.308051757707    -0.197682885907     0.443149141964    12.000000000000
         C           -1.220256242293    -0.236616885907     0.371411141964    12.000000000000
         H            0.638918757707     0.388547114093     1.312157141964     1.007825032230
         H            0.715976757707    -1.213111885907     0.545274141964     1.007825032230
         H           -1.594597242293    -1.253288885907     0.442940141964     1.007825032230
         H           -1.521790242293     0.174816114093    -0.588165858036     1.007825032230
         H           -1.670062242293     0.359476114093     1.159280141964     1.007825032230
         H            1.752020757707     0.424743114093    -0.723328858036     1.007825032230

  Charge       = 0
  Multiplicity = 1
  Basis Set: 6-311+G*
    Blend: 6-311+G*
  Basis Set: (6-311+G* AUX)
    Blend: HEAVY-AUG-CC-PVTZ-JKFIT

    Orbital Energies [Eh]
    ---------------------

    Doubly Occupied:

       1A    -19.245554     2A    -10.328501     3A    -10.266020
       4A     -1.128876     5A     -0.847866     6A     -0.710416
       7A     -0.614248     8A     -0.557050     9A     -0.488162
      10A     -0.465844    11A     -0.457275    12A     -0.417119
      13A     -0.356873

  @DF-RKS Final Energy:  -155.02199350504341

   => Energetics <=

    Nuclear Repulsion Energy =             81.8317703690706253
    One-Electron Energy =                -371.8801739301584917
    Two-Electron Energy =                 149.8948007666152478
    DFT Exchange-Correlation Energy =     -14.8660574702390953
    Empirical Dispersion Energy =          -0.0023332403316882
    VV10 Nonlocal Energy =                  0.0000000000000000
    Total Energy =                       -155.0219935050434117
 Dipole X            :          1.9803361           -1.5707145            0.4096216
 Dipole Y            :          0.8070561           -1.0469537           -0.2398976
 Dipole Z            :         -1.4821332            2.0102447            0.5281115
 Magnitude           :                                                    0.7101003
*** Psi4 exiting successfully. Buy a developer a beer!
