                               Psi4 1.9.1 release

  ==> Input File <==

--------------------------------------------------------------------------
molecule {
0 1
 O    1.205954   -0.393448   -0.193769
 C    0.293534    0.405026    0.523270
 C   -1.160048    0.040341    0.234269
 H    0.456788    1.469733    0.300021
 H    0.524501    0.231809    1.576579
 H   -1.393058    0.206294   -0.816661
 H   -1.824641    0.650646    0.839349
 H   -1.334249   -1.007691    0.465116
 H    1.072952   -0.245119   -1.136651
}
memory 4GB
set_num_threads(2)
psi4_io.set_default_path("/scratch/liuchw/Psi4-ethanol")
set freeze_core True
E, wfn = energy('wb97x-d/6-311+G*',return_wfn=True)
oeprop(wfn,"WIBERG_LOWDIN_INDICES")
clean()
--------------------------------------------------------------------------

    Molecular point group: c1

    Geometry (in Angstrom), charge = 0, multiplicity = 1:

       Center              X                  Y                   Z               Mass
    ------------   -----------------  -----------------  -----------------  -----------------
         O            1.067521040057    -0.401421737809    -0.350767627776    15.994914619570
         C            0.155101040057     0.397052262191     0.366271372224    12.000000000000
         C           -1.298480959943     0.032367262191     0.077270372224    12.000000000000
         H            0.318355040057     1.461759262191     0.143022372224     1.007825032230
         H            0.386068040057     0.223835262191     1.419580372224     1.007825032230
         H           -1.531490959943     0.198320262191    -0.973659627776     1.007825032230
         H           -1.963073959943     0.642672262191     0.682350372224     1.007825032230
         H           -1.472681959943    -1.015664737809     0.308117372224     1.007825032230
         H            0.934519040057    -0.253092737809    -1.293649627776     1.007825032230

  Charge       = 0
  Multiplicity = 1
  Basis Set: 6-311+G*
    Blend: 6-311+G*
  Basis Set: (6-311+G* AUX)
    Blend: HEAVY-AUG-CC-PVTZ-JKFIT

    Orbital Energies [Eh]
    ---------------------

    Doubly Occupied:

       1A    -19.246258     2A    -10.328371     3A    -10.273639
       4A     -1.131118     5A     -0.850654     6A     -0.725071
       7A     -0.600071     8A     -0.547671     9A     -0.522744
      10A     -0.471367    11A     -0.461610    12A     -0.412121
      13A     -0.359993

  @DF-RKS Final Energy:  -155.02693496619980

   => Energetics <=

    Nuclear Repulsion Energy =             81.9214393749012828
    One-Electron Energy =                -371.9741484764593906
    Two-Electron Energy =                 149.8959676676461754
    DFT Exchange-Correlation Energy =     -14.8676186157117449
    Empirical Dispersion Energy =          -0.0025749165761455
    VV10 Nonlocal Energy =                  0.0000000000000000
    Total Energy =                       -155.0269349661998035
 Dipole X            :          2.5721795           -3.1150547           -0.5428752
 Dipole Y            :         -0.7313839            1.1772480            0.4458641
 Dipole Z            :         -0.5619297            0.2662070           -0.2957227
 Magnitude           :                                                    0.7622074
*** Psi4 exiting successfully. Buy a developer a beer!
