                               Psi4 1.9.1 release

  ==> Input File <==

--------------------------------------------------------------------------
molecule {
0 1
 O    1.258900   -0.277436   -0.215171
 C    0.303885    0.442654    0.533269
 C   -1.130072    0.048921    0.209882
 H    0.448726    1.522580    0.375343
 H    0.527254    0.228808    1.582826
 H   -1.359554    0.265535   -0.833106
 H   -1.820075    0.605619    0.837840
 H   -1.277478   -1.014630    0.385942
 H    0.890145   -0.464460   -1.085301
}
memory 4GB
set_num_threads(2)
psi4_io.set_default_path("/scratch/liuchw/Psi4-ethanol")
set freeze_core True
E, wfn = energy('wb97x-d/6-311+G*',return_wfn=True)
oeprop(wfn,"WIBERG_LOWDIN_INDICES")
clean()
--------------------------------------------------------------------------

    Molecular point group: c1

    Geometry (in Angstrom), charge = 0, multiplicity = 1:

       Center              X                  Y                   Z               Mass
    ------------   -----------------  -----------------  -----------------  -----------------
         O            1.093604838133    -0.334204647990    -0.361768048715    15.994914619570
         C            0.138589838133     0.385885352010     0.386671951285    12.000000000000
         C           -1.295367161867    -0.007847647990     0.063284951285    12.000000000000
         H            0.283430838133     1.465811352010     0.228745951285     1.007825032230
         H            0.361958838133     0.172039352010     1.436228951285     1.007825032230
         H           -1.524849161867     0.208766352010    -0.979703048715     1.007825032230
         H           -1.985370161867     0.548850352010     0.691242951285     1.007825032230
         H           -1.442773161867    -1.071398647990     0.239344951285     1.007825032230
         H            0.724849838133    -0.521228647990    -1.231898048715     1.007825032230

  Charge       = 0
  Multiplicity = 1
  Basis Set: 6-311+G*
    Blend: 6-311+G*
  Basis Set: (6-311+G* AUX)
    Blend: HEAVY-AUG-CC-PVTZ-JKFIT

    Orbital Energies [Eh]
    ---------------------

    Doubly Occupied:

       1A    -19.244880     2A    -10.327991     3A    -10.279808
       4A     -1.129836     5A     -0.853590     6A     -0.729544
       7A     -0.587210     8A     -0.552222     9A     -0.536860
      10A     -0.469071    11A     -0.463793    12A     -0.414127
      13A     -0.358146

  @DF-RKS Final Energy:  -155.02611085301407

   => Energetics <=

    Nuclear Repulsion Energy =             81.9982602728240124
    One-Electron Energy =                -372.0933298535294398
    Two-Electron Energy =                 149.9391513170999133
    DFT Exchange-Correlation Energy =     -14.8675935457719817
    Empirical Dispersion Energy =          -0.0025990436366268
    VV10 Nonlocal Energy =                  0.0000000000000000
    Total Energy =                       -155.0261108530140746
 Dipole X            :          2.5919488           -3.3534668           -0.7615180
 Dipole Y            :         -0.5640947            0.7510323            0.1869376
 Dipole Z            :         -0.5801486            0.3582141           -0.2219346
 Magnitude           :                                                    0.8149296
*** Psi4 exiting successfully. Buy a developer a beer!
