                               Psi4 1.9.1 release

  ==> Input File <==

--------------------------------------------------------------------------
molecule {
0 1
 O    0.908367   -0.282153   -0.684732
 C    0.217947    0.446347    0.313530
 C   -1.246624    0.029171    0.302649
 H    0.290387    1.522629    0.096049
 H    0.649876    0.259249    1.303706
 H   -1.671136    0.215614   -0.679607
 H   -1.801026    0.595199    1.046145
 H   -1.332859   -1.031905    0.520617
 H    1.826800   -0.396563   -0.426836
}
memory 4GB
set_num_threads(2)
psi4_io.set_default_path("/scratch/liuchw/Psi4-ethanol")
set freeze_core True
E, wfn = energy('wb97x-d/6-311+G*',return_wfn=True)
oeprop(wfn,"WIBERG_LOWDIN_INDICES")
clean()
--------------------------------------------------------------------------

    Molecular point group: c1

    Geometry (in Angstrom), charge = 0, multiplicity = 1:

       Center              X                  Y                   Z               Mass
    ------------   -----------------  -----------------  -----------------  -----------------
         O            0.905516908638    -0.333552654368    -0.648168477972    15.994914619570
         C            0.215096908638     0.394947345632     0.350093522028    12.000000000000
         C           -1.249474091362    -0.022228654368     0.339212522028    12.000000000000
         H            0.287536908638     1.471229345632     0.132612522028     1.007825032230
         H            0.647025908638     0.207849345632     1.340269522028     1.007825032230
         H           -1.673986091362     0.164214345632    -0.643043477972     1.007825032230
         H           -1.803876091362     0.543799345632     1.082708522028     1.007825032230
         H           -1.335709091362    -1.083304654368     0.557180522028     1.007825032230
         H            1.823949908638    -0.447962654368    -0.390272477972     1.007825032230

  Charge       = 0
  Multiplicity = 1
  Basis Set: 6-311+G*
    Blend: 6-311+G*
  Basis Set: (6-311+G* AUX)
    Blend: HEAVY-AUG-CC-PVTZ-JKFIT

    Orbital Energies [Eh]
    ---------------------

    Doubly Occupied:

       1A    -19.245627     2A    -10.328825     3A    -10.266793
       4A     -1.128616     5A     -0.850218     6A     -0.710390
       7A     -0.614220     8A     -0.556399     9A     -0.489549
      10A     -0.474792    11A     -0.453727    12A     -0.414631
      13A     -0.358980

  @DF-RKS Final Energy:  -155.02627162138162

   => Energetics <=

    Nuclear Repulsion Energy =             81.8732710204791090
    One-Electron Energy =                -371.9537000751932965
    Two-Electron Energy =                 149.9225064716672762
    DFT Exchange-Correlation Energy =     -14.8659076803823176
    Empirical Dispersion Energy =          -0.0024413579524069
    VV10 Nonlocal Energy =                  0.0000000000000000
    Total Energy =                       -155.0262716213816248
 Dipole X            :          2.2266501           -1.9222037            0.3044464
 Dipole Y            :         -0.5795015            0.8007072            0.2212057
 Dipole Z            :         -1.3129672            1.9463113            0.6333441
 Magnitude           :                                                    0.7367118
*** Psi4 exiting successfully. Buy a developer a beer!
