   * xtb version 6.5.0 (97a52f5) compiled by 'conda@d2599ee0d4f4' on 2022-05-15
          program call               : /home/liuchw/anaconda3/envs/xtbenv/bin/xtb --gfn 2 --chrg 0 --uhf 0 ethanol-opt-1-2-240_preQMOPTprefit_xyzformat.xyz --opt --input xtb-opt-1-2-240_constr.txt

   ID    Z sym.   atoms
    1    8 O      1
    2    6 C      2, 3
    3    1 H      4-9
constraining angle 9 1 2 4 to  239.6715000°, actual value: -120.3285131°
constraining angle 4 2 3 6 to   60.9741000°, actual value:   60.9741450°

          :  Hamiltonian                  GFN2-xTB          :
 * total energy  :   -11.3905301 Eh     change       -0.3424816E-11 Eh
 * total energy  :   -11.3921765 Eh     change       -0.1646347E-02 Eh
 * total energy  :   -11.3922496 Eh     change       -0.7306439E-04 Eh
 * total energy  :   -11.3922585 Eh     change       -0.8976178E-05 Eh
 * total energy  :   -11.3922597 Eh     change       -0.1169444E-05 Eh
 * total energy  :   -11.3922602 Eh     change       -0.4861809E-06 Eh
   *** GEOMETRY OPTIMIZATION CONVERGED AFTER 6 ITERATIONS ***

 final structure:
================
9
 xtb: 6.5.0 (97a52f5)
O            1.25829482252007       -0.04314326976956       -0.39476573140920
C            0.28068497667133        0.60091323667689        0.39948481785214
C           -1.09207142271750       -0.04659570102724        0.30147025634387
H            0.22402393224506        1.65019040050056        0.08113105036662
H            0.63031801344780        0.58140947850170        1.43969648163484
H           -1.44976794641430       -0.02719654246953       -0.72716977039684
H           -1.80270517557048        0.49096649770276        0.92346970798508
H           -1.05027051125488       -1.08087206519235        0.63997045733072
H            0.84322532107290       -0.76808304492323       -0.87176627970723

          :  Hamiltonian                  GFN2-xTB          :
         :: total energy             -11.392260192228 Eh    ::
         :: gradient norm              0.000512043502 Eh/a0 ::
         :: HOMO-LUMO gap             12.548403693001 eV    ::
         :: SCC energy               -11.513015909575 Eh    ::
         :: -> dispersion             -0.002780050083 Eh    ::
         :: repulsion energy           0.120755217209 Eh    ::

    * Orbital Energies and Occupations

         #    Occupation            Energy/Eh            Energy/eV
      -------------------------------------------------------------
         1        2.0000           -0.6838587             -18.6087
         2        2.0000           -0.6267273             -17.0541
         3        2.0000           -0.6003679             -16.3368
         4        2.0000           -0.5415059             -14.7351
         5        2.0000           -0.5317383             -14.4693
         6        2.0000           -0.5278553             -14.3637
         7        2.0000           -0.4723433             -12.8531
         8        2.0000           -0.4712242             -12.8227
         9        2.0000           -0.4545395             -12.3686
        10        2.0000           -0.4038481             -10.9893 (HOMO)
        11                          0.0572973               1.5591 (LUMO)
        12                          0.1049758               2.8565
        13                          0.1403957               3.8204
        14                          0.1474738               4.0130
        15                          0.1590323               4.3275
        16                          0.2388919               6.5006
        17                          0.2463330               6.7031
        18                          0.2629683               7.1557
      -------------------------------------------------------------
                  HL-Gap            0.4611454 Eh           12.5484 eV

     #   Z          covCN         q      C6AA      α(0)
     1   8 O        1.655    -0.451    21.867     6.313
     2   6 C        3.672     0.083    19.421     6.316
     3   6 C        3.750    -0.118    22.826     6.814
     4   1 H        0.923     0.033     2.550     2.497
     5   1 H        0.924     0.034     2.531     2.488
     6   1 H        0.925     0.042     2.422     2.433
     7   1 H        0.925     0.044     2.398     2.421
     8   1 H        0.925     0.043     2.414     2.430
     9   1 H        0.805     0.291     0.750     1.360

Wiberg/Mayer (AO) data.
largest (>0.10) Wiberg bond orders for each atom

     #   Z sym  total        # sym  WBO       # sym  WBO       # sym  WBO
 ---------------------------------------------------------------------------
     1   8 O    1.946 --     2 C    0.993     9 H    0.899
     2   6 C    3.958 --     3 C    1.019     1 O    0.993     5 H    0.972
                             4 H    0.972
     3   6 C    3.996 --     2 C    1.019     8 H    0.986     6 H    0.986
                             7 H    0.985
     4   1 H    0.999 --     2 C    0.972
     5   1 H    0.999 --     2 C    0.972
     6   1 H    0.998 --     3 C    0.986
     7   1 H    0.998 --     3 C    0.985
     8   1 H    0.998 --     3 C    0.986
     9   1 H    0.916 --     1 O    0.899
 ---------------------------------------------------------------------------

molecular dipole:
                 x           y           z       tot (Debye)
 q only:       -0.617      -0.190       0.021
   full:       -0.820      -0.284      -0.000       2.205

           -------------------------------------------------
          | TOTAL ENERGY              -11.392260192228 Eh   |
          | GRADIENT NORM               0.000512043502 Eh/α |
          | HOMO-LUMO GAP              12.548403693001 eV   |
           -------------------------------------------------

 * finished run on 2025/02/19 at 10:40:01.994
