                               Psi4 1.9.1 release

  ==> Input File <==

--------------------------------------------------------------------------
molecule {
0 1
 O    1.039619   -0.519366   -0.341935
 C    0.252502    0.359934    0.443645
 C   -1.229773    0.038326    0.279799
 H    0.432228    1.403901    0.166946
 H    0.544409    0.227596    1.493341
 H   -1.531656    0.174007   -0.756007
 H   -1.825141    0.689663    0.913805
 H   -1.411664   -0.995934    0.557792
 H    1.571208   -0.020537   -0.965864
}
memory 4GB
set_num_threads(2)
psi4_io.set_default_path("/scratch/liuchw/Psi4-ethanol")
set freeze_core True
E, wfn = energy('wb97x-d/6-311+G*',return_wfn=True)
oeprop(wfn,"WIBERG_LOWDIN_INDICES")
clean()
--------------------------------------------------------------------------

    Molecular point group: c1

    Geometry (in Angstrom), charge = 0, multiplicity = 1:

       Center              X                  Y                   Z               Mass
    ------------   -----------------  -----------------  -----------------  -----------------
         O            0.981772238994    -0.475105673214    -0.442564140143    15.994914619570
         C            0.194655238994     0.404194326786     0.343015859857    12.000000000000
         C           -1.287619761006     0.082586326786     0.179169859857    12.000000000000
         H            0.374381238994     1.448161326786     0.066316859857     1.007825032230
         H            0.486562238994     0.271856326786     1.392711859857     1.007825032230
         H           -1.589502761006     0.218267326786    -0.856636140143     1.007825032230
         H           -1.882987761006     0.733923326786     0.813175859857     1.007825032230
         H           -1.469510761006    -0.951673673214     0.457162859857     1.007825032230
         H            1.513361238994     0.023723326786    -1.066493140143     1.007825032230

  Charge       = 0
  Multiplicity = 1
  Basis Set: 6-311+G*
    Blend: 6-311+G*
  Basis Set: (6-311+G* AUX)
    Blend: HEAVY-AUG-CC-PVTZ-JKFIT

    Orbital Energies [Eh]
    ---------------------

    Doubly Occupied:

       1A    -19.245059     2A    -10.329051     3A    -10.266840
       4A     -1.127877     5A     -0.849626     6A     -0.714205
       7A     -0.613555     8A     -0.551429     9A     -0.492036
      10A     -0.478986    11A     -0.455402    12A     -0.411744
      13A     -0.358618

  @DF-RKS Final Energy:  -155.02525115923592

   => Energetics <=

    Nuclear Repulsion Energy =             81.7220273054984148
    One-Electron Energy =                -371.6457823639007643
    Two-Electron Energy =                 149.7668350212297810
    DFT Exchange-Correlation Energy =     -14.8658830461376148
    Empirical Dispersion Energy =          -0.0024480759257824
    VV10 Nonlocal Energy =                  0.0000000000000000
    Total Energy =                       -155.0252511592359213
 Dipole X            :          2.3987988           -2.4024198           -0.0036209
 Dipole Y            :         -0.8792480            1.6329057            0.7536577
 Dipole Z            :         -0.8536148            0.7536972           -0.0999176
 Magnitude           :                                                    0.7602609
*** Psi4 exiting successfully. Buy a developer a beer!
