                               Psi4 1.9.1 release

  ==> Input File <==

--------------------------------------------------------------------------
molecule {
0 1
 O    0.873292   -0.270436   -0.714197
 C    0.230959    0.362676    0.371240
 C   -1.258580    0.039602    0.309012
 H    0.383323    1.451880    0.334326
 H    0.654501    0.008478    1.323281
 H   -1.540548   -0.091532   -0.732185
 H   -1.848446    0.833335    0.755630
 H   -1.469371   -0.893340    0.825333
 H    1.816603   -0.083075   -0.680917
}
memory 4GB
set_num_threads(2)
psi4_io.set_default_path("/scratch/liuchw/Psi4-ethanol")
set freeze_core True
E, wfn = energy('wb97x-d/6-311+G*',return_wfn=True)
oeprop(wfn,"WIBERG_LOWDIN_INDICES")
clean()
--------------------------------------------------------------------------

    Molecular point group: c1

    Geometry (in Angstrom), charge = 0, multiplicity = 1:

       Center              X                  Y                   Z               Mass
    ------------   -----------------  -----------------  -----------------  -----------------
         O            0.881607038999    -0.308164115031    -0.683339351284    15.994914619570
         C            0.239274038999     0.324947884969     0.402097648716    12.000000000000
         C           -1.250264961001     0.001873884969     0.339869648716    12.000000000000
         H            0.391638038999     1.414151884969     0.365183648716     1.007825032230
         H            0.662816038999    -0.029250115031     1.354138648716     1.007825032230
         H           -1.532232961001    -0.129260115031    -0.701327351284     1.007825032230
         H           -1.840130961001     0.795606884969     0.786487648716     1.007825032230
         H           -1.461055961001    -0.931068115031     0.856190648716     1.007825032230
         H            1.824918038999    -0.120803115031    -0.650059351284     1.007825032230

  Charge       = 0
  Multiplicity = 1
  Basis Set: 6-311+G*
    Blend: 6-311+G*
  Basis Set: (6-311+G* AUX)
    Blend: HEAVY-AUG-CC-PVTZ-JKFIT

    Orbital Energies [Eh]
    ---------------------

    Doubly Occupied:

       1A    -19.246682     2A    -10.328620     3A    -10.266604
       4A     -1.130341     5A     -0.849256     6A     -0.709824
       7A     -0.615369     8A     -0.556475     9A     -0.490005
      10A     -0.471750    11A     -0.452738    12A     -0.416917
      13A     -0.358135

  @DF-RKS Final Energy:  -155.02464117034378

   => Energetics <=

    Nuclear Repulsion Energy =             81.9113855568971729
    One-Electron Energy =                -372.0267789294357499
    Two-Electron Energy =                 149.9592722856230864
    DFT Exchange-Correlation Energy =     -14.8661311700603598
    Empirical Dispersion Energy =          -0.0023889133679536
    VV10 Nonlocal Energy =                  0.0000000000000000
    Total Energy =                       -155.0246411703437843
 Dipole X            :          2.1624806           -1.8276240            0.3348566
 Dipole Y            :         -0.5352456            0.9354050            0.4001594
 Dipole Z            :         -1.3933510            1.8816057            0.4882547
 Magnitude           :                                                    0.7145972
*** Psi4 exiting successfully. Buy a developer a beer!
