                               Psi4 1.9.1 release

  ==> Input File <==

--------------------------------------------------------------------------
molecule {
0 1
 O    1.018064   -0.648681    0.304629
 C    0.187448    0.478285    0.095875
 C   -1.260148    0.036674    0.281233
 H    0.343068    0.861928   -0.922329
 H    0.439518    1.268746    0.816298
 H   -1.874006    0.864021    0.625009
 H   -1.282324   -0.741746    1.040377
 H   -1.668135   -0.369646   -0.638432
 H    1.938248   -0.391993    0.188861
}
memory 4GB
set_num_threads(2)
psi4_io.set_default_path("/scratch/liuchw/Psi4-ethanol")
set freeze_core True
E, wfn = energy('wb97x-d/6-311+G*',return_wfn=True)
oeprop(wfn,"WIBERG_LOWDIN_INDICES")
clean()
--------------------------------------------------------------------------

    Molecular point group: c1

    Geometry (in Angstrom), charge = 0, multiplicity = 1:

       Center              X                  Y                   Z               Mass
    ------------   -----------------  -----------------  -----------------  -----------------
         O            0.990016596140    -0.590188372204     0.076222114572    15.994914619570
         C            0.159400596140     0.536777627796    -0.132531885428    12.000000000000
         C           -1.288195403860     0.095166627796     0.052826114572    12.000000000000
         H            0.315020596140     0.920420627796    -1.150735885428     1.007825032230
         H            0.411470596140     1.327238627796     0.587891114572     1.007825032230
         H           -1.902053403860     0.922513627796     0.396602114572     1.007825032230
         H           -1.310371403860    -0.683253372204     0.811970114572     1.007825032230
         H           -1.696182403860    -0.311153372204    -0.866838885428     1.007825032230
         H            1.910200596140    -0.333500372204    -0.039545885428     1.007825032230

  Charge       = 0
  Multiplicity = 1
  Basis Set: 6-311+G*
    Blend: 6-311+G*
  Basis Set: (6-311+G* AUX)
    Blend: HEAVY-AUG-CC-PVTZ-JKFIT

    Orbital Energies [Eh]
    ---------------------

    Doubly Occupied:

       1A    -19.245391     2A    -10.328607     3A    -10.266621
       4A     -1.128576     5A     -0.849306     6A     -0.709680
       7A     -0.612999     8A     -0.559026     9A     -0.489114
      10A     -0.468883    11A     -0.454931    12A     -0.416279
      13A     -0.358584

  @DF-RKS Final Energy:  -155.02482207816948

   => Energetics <=

    Nuclear Repulsion Energy =             81.9202679714322386
    One-Electron Energy =                -372.0544004707386421
    Two-Electron Energy =                 149.9777161242222405
    DFT Exchange-Correlation Energy =     -14.8660115446472361
    Empirical Dispersion Energy =          -0.0023941584380716
    VV10 Nonlocal Energy =                  0.0000000000000000
    Total Energy =                       -155.0248220781694783
 Dipole X            :          2.3598757           -2.1250943            0.2347813
 Dipole Y            :         -1.0640421            1.7242321            0.6601900
 Dipole Z            :          0.0891643           -0.2439920           -0.1548278
 Magnitude           :                                                    0.7175965
*** Psi4 exiting successfully. Buy a developer a beer!
