   * xtb version 6.5.0 (97a52f5) compiled by 'conda@d2599ee0d4f4' on 2022-05-15
          program call               : /home/liuchw/anaconda3/envs/xtbenv/bin/xtb --gfn 2 --chrg 0 --uhf 0 ethanol-opt-1-2-180_preQMOPTprefit_xyzformat.xyz --opt --input xtb-opt-1-2-180_constr.txt

   ID    Z sym.   atoms
    1    8 O      1
    2    6 C      2, 3
    3    1 H      4-9
constraining angle 9 1 2 4 to  179.6470000°, actual value:  179.6469915°
constraining angle 4 2 3 6 to   60.9827000°, actual value:   60.9826586°

          :  Hamiltonian                  GFN2-xTB          :
 * total energy  :   -11.3921144 Eh     change       -0.1059419E-10 Eh
 * total energy  :   -11.3941286 Eh     change       -0.2014262E-02 Eh
 * total energy  :   -11.3942759 Eh     change       -0.1472572E-03 Eh
 * total energy  :   -11.3943003 Eh     change       -0.2445178E-04 Eh
 * total energy  :   -11.3943046 Eh     change       -0.4274721E-05 Eh
 * total energy  :   -11.3943053 Eh     change       -0.6952385E-06 Eh
   *** GEOMETRY OPTIMIZATION CONVERGED AFTER 6 ITERATIONS ***

 final structure:
================
9
 xtb: 6.5.0 (97a52f5)
O            1.11993949534518        0.05010407933561       -0.63027810945257
C            0.25278089405016        0.59164894413731        0.33870686434333
C           -1.14580487514023       -0.01480631690920        0.28428113183962
H            0.21282450003066        1.66150523971193        0.12229737901287
H            0.67614737053053        0.46022834388258        1.34587076951379
H           -1.56735598494169        0.10975981616296       -0.71011449137455
H           -1.79262396954927        0.47654409300843        1.00566628927346
H           -1.11017493987786       -1.07838433230368        0.51614086382818
H            1.19599950955252       -0.89901085702594       -0.48104870698413

          :  Hamiltonian                  GFN2-xTB          :
         :: total energy             -11.394305310075 Eh    ::
         :: gradient norm              0.000302692448 Eh/a0 ::
         :: HOMO-LUMO gap             12.886237414190 eV    ::
         :: SCC energy               -11.515381281749 Eh    ::
         :: -> dispersion             -0.002779091514 Eh    ::
         :: repulsion energy           0.121075380249 Eh    ::

    * Orbital Energies and Occupations

         #    Occupation            Energy/Eh            Energy/eV
      -------------------------------------------------------------
         1        2.0000           -0.6859580             -18.6659
         2        2.0000           -0.6257069             -17.0264
         3        2.0000           -0.5952073             -16.1964
         4        2.0000           -0.5561616             -15.1339
         5        2.0000           -0.5276110             -14.3570
         6        2.0000           -0.5145177             -14.0007
         7        2.0000           -0.4799544             -13.0602
         8        2.0000           -0.4672130             -12.7135
         9        2.0000           -0.4412987             -12.0083
        10        2.0000           -0.4117864             -11.2053 (HOMO)
        11                          0.0617742               1.6810 (LUMO)
        12                          0.1121012               3.0504
        13                          0.1341385               3.6501
        14                          0.1611240               4.3844
        15                          0.1707840               4.6473
        16                          0.2118342               5.7643
        17                          0.2481955               6.7537
        18                          0.2767255               7.5301
      -------------------------------------------------------------
                  HL-Gap            0.4735605 Eh           12.8862 eV

     #   Z          covCN         q      C6AA      α(0)
     1   8 O        1.655    -0.443    21.696     6.288
     2   6 C        3.673     0.084    19.410     6.314
     3   6 C        3.750    -0.118    22.829     6.814
     4   1 H        0.924     0.048     2.346     2.395
     5   1 H        0.923     0.016     2.799     2.617
     6   1 H        0.925     0.051     2.311     2.377
     7   1 H        0.925     0.040     2.447     2.446
     8   1 H        0.925     0.037     2.489     2.467
     9   1 H        0.805     0.286     0.766     1.375

Wiberg/Mayer (AO) data.
largest (>0.10) Wiberg bond orders for each atom

     #   Z sym  total        # sym  WBO       # sym  WBO       # sym  WBO
 ---------------------------------------------------------------------------
     1   8 O    1.960 --     2 C    0.999     9 H    0.904
     2   6 C    3.957 --     3 C    1.011     1 O    0.999     4 H    0.974
                             5 H    0.972
     3   6 C    3.996 --     2 C    1.011     6 H    0.987     8 H    0.987
                             7 H    0.986
     4   1 H    0.998 --     2 C    0.974
     5   1 H    1.000 --     2 C    0.972
     6   1 H    0.997 --     3 C    0.987
     7   1 H    0.998 --     3 C    0.986
     8   1 H    0.999 --     3 C    0.987
     9   1 H    0.918 --     1 O    0.904
 ---------------------------------------------------------------------------

molecular dipole:
                 x           y           z       tot (Debye)
 q only:       -0.320      -0.294       0.353
   full:       -0.385      -0.455       0.502       1.982

           -------------------------------------------------
          | TOTAL ENERGY              -11.394305310075 Eh   |
          | GRADIENT NORM               0.000302692448 Eh/α |
          | HOMO-LUMO GAP              12.886237414190 eV   |
           -------------------------------------------------

 * finished run on 2025/02/19 at 10:39:50.604
