   * xtb version 6.5.0 (97a52f5) compiled by 'conda@d2599ee0d4f4' on 2022-05-15
          program call               : /home/liuchw/anaconda3/envs/xtbenv/bin/xtb --gfn 2 --chrg 0 --uhf 0 ethanol-opt-1-2-120_preQMOPTprefit_xyzformat.xyz --opt --input xtb-opt-1-2-120_constr.txt

   ID    Z sym.   atoms
    1    8 O      1
    2    6 C      2, 3
    3    1 H      4-9
constraining angle 9 1 2 4 to  119.6652000°, actual value:  119.6652426°
constraining angle 4 2 3 6 to   60.9760000°, actual value:   60.9760145°

          :  Hamiltonian                  GFN2-xTB          :
 * total energy  :   -11.3892610 Eh     change       -0.4262368E-10 Eh
 * total energy  :   -11.3903254 Eh     change       -0.1064411E-02 Eh
 * total energy  :   -11.3904194 Eh     change       -0.9406627E-04 Eh
 * total energy  :   -11.3904315 Eh     change       -0.1201616E-04 Eh
 * total energy  :   -11.3904333 Eh     change       -0.1830405E-05 Eh
 * total energy  :   -11.3904337 Eh     change       -0.4328638E-06 Eh
   *** GEOMETRY OPTIMIZATION CONVERGED AFTER 6 ITERATIONS ***

 final structure:
================
9
 xtb: 6.5.0 (97a52f5)
O            0.96252977186409       -0.13748377692512       -0.72550471162374
C            0.21999241757541        0.50263120787934        0.29906264815075
C           -1.22564172144548        0.01763257555972        0.29678396878276
H            0.25159683217350        1.58320614998192        0.10886460113157
H            0.66925793249720        0.32058387292603        1.28096736828709
H           -1.67321661928545        0.20747401978610       -0.67455817880664
H           -1.79462105992346        0.54093078273204        1.06041958248766
H           -1.26456365163361       -1.05117178720840        0.49277904359940
H            1.69639807817781       -0.62621403473164       -0.34729132200885

          :  Hamiltonian                  GFN2-xTB          :
         :: total energy             -11.390433718074 Eh    ::
         :: gradient norm              0.000200310692 Eh/a0 ::
         :: HOMO-LUMO gap             12.363496546226 eV    ::
         :: SCC energy               -11.512023718308 Eh    ::
         :: -> dispersion             -0.002770339358 Eh    ::
         :: repulsion energy           0.121589253918 Eh    ::

    * Orbital Energies and Occupations

         #    Occupation            Energy/Eh            Energy/eV
      -------------------------------------------------------------
         1        2.0000           -0.6839543             -18.6113
         2        2.0000           -0.6250693             -17.0090
         3        2.0000           -0.5830298             -15.8650
         4        2.0000           -0.5666596             -15.4196
         5        2.0000           -0.5270545             -14.3419
         6        2.0000           -0.5007200             -13.6253
         7        2.0000           -0.4801424             -13.0653
         8        2.0000           -0.4621851             -12.5767
         9        2.0000           -0.4396565             -11.9637
        10        2.0000           -0.4087266             -11.1220 (HOMO)
        11                          0.0456236               1.2415 (LUMO)
        12                          0.1221498               3.3239
        13                          0.1236300               3.3641
        14                          0.1601327               4.3574
        15                          0.1822414               4.9590
        16                          0.2084560               5.6724
        17                          0.2552096               6.9446
        18                          0.2959869               8.0542
      -------------------------------------------------------------
                  HL-Gap            0.4543501 Eh           12.3635 eV

     #   Z          covCN         q      C6AA      α(0)
     1   8 O        1.655    -0.445    21.747     6.295
     2   6 C        3.672     0.088    19.352     6.305
     3   6 C        3.750    -0.114    22.751     6.802
     4   1 H        0.924     0.033     2.550     2.497
     5   1 H        0.924     0.014     2.820     2.626
     6   1 H        0.925     0.055     2.258     2.350
     7   1 H        0.925     0.038     2.478     2.462
     8   1 H        0.925     0.046     2.370     2.407
     9   1 H        0.805     0.286     0.765     1.374

Wiberg/Mayer (AO) data.
largest (>0.10) Wiberg bond orders for each atom

     #   Z sym  total        # sym  WBO       # sym  WBO       # sym  WBO
 ---------------------------------------------------------------------------
     1   8 O    1.951 --     2 C    0.991     9 H    0.908
     2   6 C    3.957 --     3 C    1.013     1 O    0.991     5 H    0.980
                             4 H    0.972
     3   6 C    3.995 --     2 C    1.013     8 H    0.987     6 H    0.986
                             7 H    0.986
     4   1 H    0.999 --     2 C    0.972
     5   1 H    1.000 --     2 C    0.980
     6   1 H    0.997 --     3 C    0.986
     7   1 H    0.999 --     3 C    0.986
     8   1 H    0.998 --     3 C    0.987
     9   1 H    0.918 --     1 O    0.908
 ---------------------------------------------------------------------------

molecular dipole:
                 x           y           z       tot (Debye)
 q only:        0.029      -0.068       0.498
   full:        0.152      -0.109       0.715       1.879

           -------------------------------------------------
          | TOTAL ENERGY              -11.390433718074 Eh   |
          | GRADIENT NORM               0.000200310692 Eh/α |
          | HOMO-LUMO GAP              12.363496546226 eV   |
           -------------------------------------------------

 * finished run on 2025/02/19 at 10:39:43.083
