   * xtb version 6.5.0 (97a52f5) compiled by 'conda@d2599ee0d4f4' on 2022-05-15
          program call               : /home/liuchw/anaconda3/envs/xtbenv/bin/xtb --gfn 2 --chrg 0 --uhf 0 ethanol-opt-1-2-270_preQMOPTprefit_xyzformat.xyz --opt --input xtb-opt-1-2-270_constr.txt

   ID    Z sym.   atoms
    1    8 O      1
    2    6 C      2, 3
    3    1 H      4-9
constraining angle 9 1 2 4 to  269.6953000°, actual value:  -90.3046802°
constraining angle 4 2 3 6 to   60.9685000°, actual value:   60.9685233°

          :  Hamiltonian                  GFN2-xTB          :
 * total energy  :   -11.3915563 Eh     change       -0.1243450E-11 Eh
 * total energy  :   -11.3934524 Eh     change       -0.1896190E-02 Eh
 * total energy  :   -11.3935385 Eh     change       -0.8601743E-04 Eh
 * total energy  :   -11.3935507 Eh     change       -0.1228466E-04 Eh
 * total energy  :   -11.3935531 Eh     change       -0.2323518E-05 Eh
 * total energy  :   -11.3935537 Eh     change       -0.6750910E-06 Eh
   *** GEOMETRY OPTIMIZATION CONVERGED AFTER 6 ITERATIONS ***

 final structure:
================
9
 xtb: 6.5.0 (97a52f5)
O            1.25890020895175       -0.27743552190074       -0.21517139322258
C            0.30388510785183        0.44265430019878        0.53326928236685
C           -1.13007166456067        0.04892071875708        0.20988164564995
H            0.44872618594053        1.52257961692359        0.37534309304050
H            0.52725378525791        0.22880778433740        1.58282619311835
H           -1.35955440395217        0.26553499110654       -0.83310630533440
H           -1.82007519336228        0.60561918412203        0.83783963511626
H           -1.27747805581692       -1.01462986639747        0.38594178630623
H            0.89014502969000       -0.46446019714720       -1.08530092704115

          :  Hamiltonian                  GFN2-xTB          :
         :: total energy             -11.393553748337 Eh    ::
         :: gradient norm              0.000156725083 Eh/a0 ::
         :: HOMO-LUMO gap             12.739869576291 eV    ::
         :: SCC energy               -11.514398498664 Eh    ::
         :: -> dispersion             -0.002780670893 Eh    ::
         :: repulsion energy           0.120843201929 Eh    ::

    * Orbital Energies and Occupations

         #    Occupation            Energy/Eh            Energy/eV
      -------------------------------------------------------------
         1        2.0000           -0.6849945             -18.6397
         2        2.0000           -0.6263226             -17.0431
         3        2.0000           -0.5990211             -16.3002
         4        2.0000           -0.5484722             -14.9247
         5        2.0000           -0.5279810             -14.3671
         6        2.0000           -0.5240140             -14.2591
         7        2.0000           -0.4757627             -12.9462
         8        2.0000           -0.4698678             -12.7858
         9        2.0000           -0.4490800             -12.2201
        10        2.0000           -0.4071467             -11.0790 (HOMO)
        11                          0.0610349               1.6608 (LUMO)
        12                          0.1078706               2.9353
        13                          0.1381053               3.7580
        14                          0.1517966               4.1306
        15                          0.1633023               4.4437
        16                          0.2320102               6.3133
        17                          0.2442211               6.6456
        18                          0.2668936               7.2625
      -------------------------------------------------------------
                  HL-Gap            0.4681816 Eh           12.7399 eV

     #   Z          covCN         q      C6AA      α(0)
     1   8 O        1.655    -0.447    21.785     6.301
     2   6 C        3.672     0.084    19.416     6.315
     3   6 C        3.750    -0.118    22.825     6.814
     4   1 H        0.923     0.021     2.717     2.578
     5   1 H        0.924     0.044     2.393     2.419
     6   1 H        0.925     0.037     2.482     2.464
     7   1 H        0.925     0.043     2.415     2.430
     8   1 H        0.925     0.048     2.344     2.394
     9   1 H        0.805     0.288     0.758     1.368

Wiberg/Mayer (AO) data.
largest (>0.10) Wiberg bond orders for each atom

     #   Z sym  total        # sym  WBO       # sym  WBO       # sym  WBO
 ---------------------------------------------------------------------------
     1   8 O    1.952 --     2 C    0.997     9 H    0.900
     2   6 C    3.958 --     3 C    1.016     1 O    0.997     5 H    0.973
                             4 H    0.970
     3   6 C    3.996 --     2 C    1.016     8 H    0.986     7 H    0.985
                             6 H    0.985
     4   1 H    1.000 --     2 C    0.970
     5   1 H    0.998 --     2 C    0.973
     6   1 H    0.999 --     3 C    0.985
     7   1 H    0.998 --     3 C    0.985
     8   1 H    0.998 --     3 C    0.986
     9   1 H    0.917 --     1 O    0.900
 ---------------------------------------------------------------------------

molecular dipole:
                 x           y           z       tot (Debye)
 q only:       -0.576       0.096      -0.181
   full:       -0.760       0.139      -0.299       2.107

           -------------------------------------------------
          | TOTAL ENERGY              -11.393553748337 Eh   |
          | GRADIENT NORM               0.000156725083 Eh/α |
          | HOMO-LUMO GAP              12.739869576291 eV   |
           -------------------------------------------------

 * finished run on 2025/02/19 at 10:40:47.910
