                               Psi4 1.6 release

  ==> Input File <==

--------------------------------------------------------------------------
molecule {
0 1
 H   -0.758872   -0.843856   -0.589607
 N   -0.005346   -0.387967   -0.063481
 C    1.181890   -1.075654    0.117312
 C    2.082612   -0.762843    1.135547
 C   -0.314286    0.847723    0.354244
 C    1.455642   -2.157376   -0.722272
 C   -1.545677    1.382172    0.109951
 N   -3.652373    1.521000   -0.676478
 C   -2.082867    2.678967    0.422007
 C   -2.594299    0.658368   -0.607187
 C   -3.340112    2.722603   -0.059722
 C    2.620298   -2.882001   -0.568978
 C    3.247206   -1.493126    1.278023
 C    3.524942   -2.549999    0.427524
 H    0.746303   -2.414612   -1.495214
 H    1.870374    0.044028    1.820059
 H   -4.531702    1.306575   -1.115772
 O   -2.559989   -0.479784   -1.073106
 H    2.824728   -3.711183   -1.229748
 H    3.938197   -1.240487    2.068750
 H   -1.564646    3.456498    0.946752
 H   -4.062858    3.514834   -0.023670
 H    4.435493   -3.117000    0.545939
 H    0.451091    1.422101    0.860412
}
memory 20GB
set_num_threads(5)
psi4_io.set_default_path("/scratch/liuchw/Psi4-1_16_Index_0-farH_in17")
set freeze_core True
E, wfn = energy('wb97x-d/6-311+G*',return_wfn=True)
oeprop(wfn,"WIBERG_LOWDIN_INDICES")
clean()
--------------------------------------------------------------------------

    Molecular point group: c1

    Geometry (in Angstrom), charge = 0, multiplicity = 1:

       Center              X                  Y                   Z               Mass
    ------------   -----------------  -----------------  -----------------  -----------------
         H           -0.554832014730    -0.709624845577    -0.573019126512     1.007825032230
         N            0.198693985270    -0.253735845577    -0.046893126512    14.003074004430
         C            1.385929985270    -0.941422845577     0.133899873488    12.000000000000
         C            2.286651985270    -0.628611845577     1.152134873488    12.000000000000
         C           -0.110246014730     0.981954154423     0.370831873488    12.000000000000
         C            1.659681985270    -2.023144845577    -0.705684126512    12.000000000000
         C           -1.341637014730     1.516403154423     0.126538873488    12.000000000000
         N           -3.448333014730     1.655231154423    -0.659890126512    14.003074004430
         C           -1.878827014730     2.813198154423     0.438594873488    12.000000000000
         C           -2.390259014730     0.792599154423    -0.590599126512    12.000000000000
         C           -3.136072014730     2.856834154423    -0.043134126512    12.000000000000
         C            2.824337985270    -2.747769845577    -0.552390126512    12.000000000000
         C            3.451245985270    -1.358894845577     1.294610873488    12.000000000000
         C            3.728981985270    -2.415767845577     0.444111873488    12.000000000000
         H            0.950342985270    -2.280380845577    -1.478626126512     1.007825032230
         H            2.074413985270     0.178259154423     1.836646873488     1.007825032230
         H           -4.327662014730     1.440806154423    -1.099184126512     1.007825032230
         O           -2.355949014730    -0.345552845577    -1.056518126512    15.994914619570
         H            3.028767985270    -3.576951845577    -1.213160126512     1.007825032230
         H            4.142236985270    -1.106255845577     2.085337873488     1.007825032230
         H           -1.360606014730     3.590729154423     0.963339873488     1.007825032230
         H           -3.858818014730     3.649065154423    -0.007082126512     1.007825032230
         H            4.639532985270    -2.982768845577     0.562526873488     1.007825032230
         H            0.655130985270     1.556332154423     0.876999873488     1.007825032230

  Charge       = 0
  Multiplicity = 1
  Basis Set: 6-311+G*
    Blend: 6-311+G*
  Basis Set: (6-311+G* AUX)
    Blend: HEAVY-AUG-CC-PVTZ-JKFIT

    Orbital Energies [Eh]
    ---------------------

    Doubly Occupied:

       1A    -19.211097     2A    -14.477975     3A    -14.467199
       4A    -10.379595     5A    -10.355635     6A    -10.343513
       7A    -10.317440     8A    -10.296932     9A    -10.295935
      10A    -10.295803    11A    -10.293759    12A    -10.288638
      13A    -10.284083    14A    -10.278969    15A     -1.143778
      16A     -1.083510    17A     -1.062851    18A     -0.970228
      19A     -0.909836    20A     -0.864813    21A     -0.860940
      22A     -0.818995    23A     -0.774701    24A     -0.730179
      25A     -0.713962    26A     -0.685951    27A     -0.676624
      28A     -0.645060    29A     -0.605396    30A     -0.592124
      31A     -0.586203    32A     -0.546258    33A     -0.543185
      34A     -0.534841    35A     -0.522371    36A     -0.519653
      37A     -0.514073    38A     -0.505214    39A     -0.498571
      40A     -0.485746    41A     -0.453820    42A     -0.450491
      43A     -0.437547    44A     -0.417341    45A     -0.367235
      46A     -0.344005    47A     -0.342668    48A     -0.313557
      49A     -0.258871

  @DF-RKS Final Energy:  -609.84971133240788

   => Energetics <=

    Nuclear Repulsion Energy =            795.9761412756899972
    One-Electron Energy =               -2404.5962329693084030
    Two-Electron Energy =                1058.1193406724435135
    DFT Exchange-Correlation Energy =     -59.3362378898034777
    Empirical Dispersion Energy =          -0.0127224214295570
    VV10 Nonlocal Energy =                  0.0000000000000000
    Total Energy =                       -609.8497113324078782
 Dipole X            :         -4.7048097            5.0496800            0.3448703
 Dipole Y            :          0.9087755           -0.2314647            0.6773107
 Dipole Z            :         -1.4509168            1.8285852            0.3776683
 Magnitude           :                                                    0.8487159
*** Psi4 exiting successfully. Buy a developer a beer!
