   * xtb version 6.5.0 (97a52f5) compiled by 'conda@d2599ee0d4f4' on 2022-05-15
          program call               : /home/liuchw/anaconda3/envs/xtbenv/bin/xtb --gfn 2 --chrg 0 --uhf 0 1_16_Index_0-opt-2-3-021_preQMOPTprefit_xyzformat.xyz --opt --input xtb-opt-2-3-021_constr.txt

   ID    Z sym.   atoms
    1    1 H      1, 15-17, 19-24
    2    7 N      2, 8
    3    6 C      3-7, 9-14
    4    8 O      18
constraining angle 1 2 3 4 to   21.0115981°, actual value:   21.0115981°
constraining angle 5 2 3 4 to  202.0473823°, actual value: -157.9526177°
constraining angle 1 2 5 24 to  183.9782694°, actual value: -176.0217306°
constraining angle 3 2 5 24 to    2.9935498°, actual value:    2.9935498°
constraining angle 2 5 7 9 to  182.0059109°, actual value: -177.9940891°

          :  Hamiltonian                  GFN2-xTB          :
 * total energy  :   -38.5517590 Eh     change       -0.1169909E-09 Eh
 * total energy  :   -38.5598352 Eh     change       -0.8076172E-02 Eh
 * total energy  :   -38.5612078 Eh     change       -0.1372628E-02 Eh
 * total energy  :   -38.5613588 Eh     change       -0.1510012E-03 Eh
 * total energy  :   -38.5613068 Eh     change        0.5208414E-04 Eh
 * total energy  :   -38.5614250 Eh     change       -0.1181949E-03 Eh
 * total energy  :   -38.5614379 Eh     change       -0.1291649E-04 Eh
 * total energy  :   -38.5614551 Eh     change       -0.1726354E-04 Eh
 * total energy  :   -38.5614637 Eh     change       -0.8565488E-05 Eh
 * total energy  :   -38.5614685 Eh     change       -0.4758699E-05 Eh
 * total energy  :   -38.5614727 Eh     change       -0.4258892E-05 Eh
   *** GEOMETRY OPTIMIZATION CONVERGED AFTER 11 ITERATIONS ***

 final structure:
================
24
 xtb: 6.5.0 (97a52f5)
H            0.25641400833368        0.57124538199922       -0.94949640501962
N            0.21852860029536       -0.07847496868123       -0.15603061924886
C            1.29195085873343       -0.92668497829828        0.05404283668305
C            2.52622228320106       -0.58527153859423       -0.50274842166608
C           -0.90169979558736        0.03074099475904        0.57162575856157
C            1.18940625019419       -2.09152986444880        0.81438851929059
C           -1.88343648841231        0.90937436509658        0.21632888193297
N           -2.93265079734758        2.51178121206708       -0.96998279328714
C           -3.13463901772659        1.22537977247282        0.85083318371135
C           -1.78512129701044        1.76947003134040       -0.96177273039450
C           -3.73229492968610        2.18088149575799        0.11301506982593
C            2.29973425570704       -2.89126988631409        1.00864162021308
C            3.62769600665738       -1.39293483227555       -0.30492285735508
C            3.52143458298812       -2.54748822616952        0.45499908441635
H            0.23976499971075       -2.38320702280754        1.23610777307305
H            2.60369673716584        0.31508024120989       -1.09440887225247
H           -3.15882340092679        3.20084718714209       -1.66730212046483
O           -0.87282686010475        1.84332616496820       -1.78418934913114
H            2.20727717024506       -3.79403234108606        1.59432387076233
H            4.57681766622425       -1.11910227048869       -0.74110488607498
H           -3.50961562136186        0.76934542647423        1.74521447128590
H           -4.67508623333953        2.67224895453398        0.25788098733892
H            4.38410859019741       -3.17701775753576        0.61056793079163
H           -0.99110356815018       -0.57372953112203        1.46526805700811

          :  Hamiltonian                  GFN2-xTB          :
         :: total energy             -38.561472718731 Eh    ::
         :: gradient norm              0.000447003285 Eh/a0 ::
         :: HOMO-LUMO gap              2.236401905699 eV    ::
         :: SCC energy               -39.192694957599 Eh    ::
         :: -> dispersion             -0.022210668552 Eh    ::
         :: repulsion energy           0.631393321526 Eh    ::

    * Orbital Energies and Occupations

         #    Occupation            Energy/Eh            Energy/eV
      -------------------------------------------------------------
         1        2.0000           -0.6846382             -18.6300
       ...           ...                  ...                  ...
        23        2.0000           -0.4838878             -13.1673
        24        2.0000           -0.4795064             -13.0480
        25        2.0000           -0.4733376             -12.8802
        26        2.0000           -0.4706388             -12.8067
        27        2.0000           -0.4612391             -12.5510
        28        2.0000           -0.4568586             -12.4318
        29        2.0000           -0.4392512             -11.9526
        30        2.0000           -0.4296969             -11.6926
        31        2.0000           -0.4226969             -11.5022
        32        2.0000           -0.4112297             -11.1901
        33        2.0000           -0.3891506             -10.5893
        34        2.0000           -0.3825606             -10.4100
        35        2.0000           -0.3499893              -9.5237 (HOMO)
        36                         -0.2678031              -7.2873 (LUMO)
        37                         -0.2285894              -6.2202
        38                         -0.2104429              -5.7264
        39                         -0.1705012              -4.6396
        40                         -0.1133904              -3.0855
        41                         -0.0903219              -2.4578
        42                          0.0236015               0.6422
        43                          0.0341825               0.9302
        44                          0.0994888               2.7072
        45                          0.1144476               3.1143
        46                          0.1264766               3.4416
       ...                                ...                  ...
        66                          0.7392316              20.1155
      -------------------------------------------------------------
                  HL-Gap            0.0821863 Eh            2.2364 eV

     #   Z          covCN         q      C6AA      α(0)
     1   1 H        0.859     0.227     0.979     1.550
     2   7 N        2.702    -0.106    23.321     7.172
     3   6 C        2.909     0.067    26.497     8.441
     4   6 C        2.926    -0.051    29.255     8.870
     5   6 C        2.831     0.040    27.096     8.530
     6   6 C        2.921    -0.048    29.200     8.861
     7   6 C        3.089    -0.067    29.566     8.913
     8   7 N        2.775    -0.146    24.152     7.299
     9   6 C        2.981    -0.071    29.773     8.950
    10   6 C        2.872     0.257    22.692     7.809
    11   6 C        2.991     0.003    27.944     8.671
    12   6 C        2.920    -0.028    28.703     8.786
    13   6 C        2.919    -0.026    28.661     8.779
    14   6 C        2.919    -0.037    28.918     8.818
    15   1 H        0.926     0.035     2.516     2.480
    16   1 H        0.926     0.041     2.433     2.439
    17   1 H        0.860     0.170     1.275     1.769
    18   8 O        0.857    -0.485    23.459     6.494
    19   1 H        0.926     0.035     2.518     2.481
    20   1 H        0.926     0.037     2.491     2.468
    21   1 H        0.926     0.033     2.540     2.492
    22   1 H        0.926     0.036     2.504     2.475
    23   1 H        0.926     0.034     2.531     2.488
    24   1 H        0.925     0.051     2.304     2.374

Wiberg/Mayer (AO) data.
largest (>0.10) Wiberg bond orders for each atom

     #   Z sym  total        # sym  WBO       # sym  WBO       # sym  WBO
 ---------------------------------------------------------------------------
     1   1 H    0.948 --     2 N    0.877
     2   7 N    3.569 --     5 C    1.296     3 C    1.103     1 H    0.877
     3   6 C    3.964 --     6 C    1.359     4 C    1.351     2 N    1.103
     4   6 C    3.983 --    13 C    1.465     3 C    1.351    16 H    0.967
                            12 C    0.105
     5   6 C    3.972 --     7 C    1.498     2 N    1.296    24 H    0.955
     6   6 C    3.984 --    12 C    1.455     3 C    1.359    15 H    0.966
                            13 C    0.104
     7   6 C    3.962 --     5 C    1.498     9 C    1.157    10 C    1.068
     8   7 N    3.513 --    10 C    1.181    11 C    1.126    17 H    0.942
                            18 O    0.143
     9   6 C    3.977 --    11 C    1.696     7 C    1.157    21 H    0.972
    10   6 C    3.949 --    18 O    1.571     8 N    1.181     7 C    1.068
    11   6 C    3.935 --     9 C    1.696     8 N    1.126    22 H    0.970
    12   6 C    3.992 --     6 C    1.455    14 C    1.433    19 H    0.971
                             4 C    0.105
    13   6 C    3.991 --     4 C    1.465    14 C    1.424    20 H    0.971
                             6 C    0.104
    14   6 C    3.968 --    12 C    1.433    13 C    1.424    23 H    0.972
    15   1 H    0.999 --     6 C    0.966
    16   1 H    0.998 --     4 C    0.967
    17   1 H    0.971 --     8 N    0.942
    18   8 O    1.972 --    10 C    1.571     8 N    0.143
    19   1 H    0.998 --    12 C    0.971
    20   1 H    0.998 --    13 C    0.971
    21   1 H    0.999 --     9 C    0.972
    22   1 H    0.998 --    11 C    0.970
    23   1 H    0.999 --    14 C    0.972
    24   1 H    0.997 --     5 C    0.955
 ---------------------------------------------------------------------------

molecular dipole:
                 x           y           z       tot (Debye)
 q only:       -0.037      -0.463       0.696
   full:       -0.302      -0.281       0.672       2.004

           -------------------------------------------------
          | TOTAL ENERGY              -38.561472718731 Eh   |
          | GRADIENT NORM               0.000447003285 Eh/α |
          | HOMO-LUMO GAP               2.236401905699 eV   |
           -------------------------------------------------

 * finished run on 2023/11/18 at 08:33:00.937
