                               Psi4 1.6 release

  ==> Input File <==

--------------------------------------------------------------------------
molecule {
0 1
 H   -0.616106   -0.680025   -0.798516
 N    0.032547   -0.337623   -0.080321
 C    1.198428   -1.050904    0.122165
 C    2.242890   -0.600337    0.930295
 C   -0.391272    0.781418    0.524224
 C    1.335232   -2.274056   -0.539700
 C   -1.592635    1.338565    0.193830
 N   -3.555357    1.609045   -0.879494
 C   -2.231278    2.535974    0.669213
 C   -2.481377    0.766178   -0.816687
 C   -3.398442    2.661907    0.008466
 C    2.477924   -3.031189   -0.382964
 C    3.382854   -1.367189    1.080297
 C    3.507707   -2.583110    0.429853
 H    0.531400   -2.619067   -1.173679
 H    2.171558    0.346731    1.442015
 H   -4.343196    1.480244   -1.491780
 O   -2.322419   -0.249959   -1.492075
 H    2.568105   -3.975807   -0.898345
 H    4.183570   -1.007410    1.709577
 H   -1.838359    3.194777    1.417584
 H   -4.152832    3.421131    0.084159
 H    4.401551   -3.175285    0.551944
 H    0.255260    1.254967    1.251224
}
memory 20GB
set_num_threads(5)
psi4_io.set_default_path("/scratch/liuchw/Psi4-1_16_Index_0-farH_in17")
set freeze_core True
E, wfn = energy('wb97x-d/6-311+G*',return_wfn=True)
oeprop(wfn,"WIBERG_LOWDIN_INDICES")
clean()
--------------------------------------------------------------------------

    Molecular point group: c1

    Geometry (in Angstrom), charge = 0, multiplicity = 1:

       Center              X                  Y                   Z               Mass
    ------------   -----------------  -----------------  -----------------  -----------------
         H           -0.429674716179    -0.562652003434    -0.752473812283     1.007825032230
         N            0.218978283821    -0.220250003434    -0.034278812283    14.003074004430
         C            1.384859283821    -0.933531003434     0.168207187717    12.000000000000
         C            2.429321283821    -0.482964003434     0.976337187717    12.000000000000
         C           -0.204840716179     0.898790996566     0.570266187717    12.000000000000
         C            1.521663283821    -2.156683003434    -0.493657812283    12.000000000000
         C           -1.406203716179     1.455937996566     0.239872187717    12.000000000000
         N           -3.368925716179     1.726417996566    -0.833451812283    14.003074004430
         C           -2.044846716179     2.653346996566     0.715255187717    12.000000000000
         C           -2.294945716179     0.883550996566    -0.770644812283    12.000000000000
         C           -3.212010716179     2.779279996566     0.054508187717    12.000000000000
         C            2.664355283821    -2.913816003434    -0.336921812283    12.000000000000
         C            3.569285283821    -1.249816003434     1.126339187717    12.000000000000
         C            3.694138283821    -2.465737003434     0.475895187717    12.000000000000
         H            0.717831283821    -2.501694003434    -1.127636812283     1.007825032230
         H            2.357989283821     0.464103996566     1.488057187717     1.007825032230
         H           -4.156764716179     1.597616996566    -1.445737812283     1.007825032230
         O           -2.135987716179    -0.132586003434    -1.446032812283    15.994914619570
         H            2.754536283821    -3.858434003434    -0.852302812283     1.007825032230
         H            4.370001283821    -0.890037003434     1.755619187717     1.007825032230
         H           -1.651927716179     3.312149996566     1.463626187717     1.007825032230
         H           -3.966400716179     3.538503996566     0.130201187717     1.007825032230
         H            4.587982283821    -3.057912003434     0.597986187717     1.007825032230
         H            0.441691283821     1.372339996566     1.297266187717     1.007825032230

  Charge       = 0
  Multiplicity = 1
  Basis Set: 6-311+G*
    Blend: 6-311+G*
  Basis Set: (6-311+G* AUX)
    Blend: HEAVY-AUG-CC-PVTZ-JKFIT

    Orbital Energies [Eh]
    ---------------------

    Doubly Occupied:

       1A    -19.212097     2A    -14.478894     3A    -14.467981
       4A    -10.380605     5A    -10.356522     6A    -10.344024
       7A    -10.318292     8A    -10.296420     9A    -10.295391
      10A    -10.295020    11A    -10.292821    12A    -10.287299
      13A    -10.285357    14A    -10.279693    15A     -1.144792
      16A     -1.084219    17A     -1.063733    18A     -0.969736
      19A     -0.910685    20A     -0.864909    21A     -0.860749
      22A     -0.819244    23A     -0.775737    24A     -0.730469
      25A     -0.714237    26A     -0.686406    27A     -0.675377
      28A     -0.645544    29A     -0.605830    30A     -0.593073
      31A     -0.586219    32A     -0.544375    33A     -0.540933
      34A     -0.536347    35A     -0.521266    36A     -0.520187
      37A     -0.514706    38A     -0.507948    39A     -0.501522
      40A     -0.486343    41A     -0.453377    42A     -0.449589
      43A     -0.437246    44A     -0.418174    45A     -0.368694
      46A     -0.344182    47A     -0.342658    48A     -0.312664
      49A     -0.258704

  @DF-RKS Final Energy:  -609.84939867725541

   => Energetics <=

    Nuclear Repulsion Energy =            796.0411306441999386
    One-Electron Energy =               -2404.6993227064622261
    Two-Electron Energy =                1058.1579811736207830
    DFT Exchange-Correlation Energy =     -59.3364849634224996
    Empirical Dispersion Energy =          -0.0127028251914279
    VV10 Nonlocal Energy =                  0.0000000000000000
    Total Energy =                       -609.8493986772555218
 Dipole X            :         -4.5056202            4.7099171            0.2042969
 Dipole Y            :          1.1775465           -0.5543820            0.6231645
 Dipole Z            :         -1.8428982            2.3904363            0.5475380
 Magnitude           :                                                    0.8543238
*** Psi4 exiting successfully. Buy a developer a beer!
