                               Psi4 1.6 release

  ==> Input File <==

--------------------------------------------------------------------------
molecule {
0 1
 H    0.471144    0.983567   -0.459636
 N    0.300458    0.062968   -0.039864
 C    1.364293   -0.813139    0.145867
 C    2.351690   -0.894698   -0.835809
 C   -0.979101   -0.148599    0.293198
 C    1.434169   -1.652609    1.256091
 C   -1.931364    0.798542    0.050518
 N   -2.804373    2.762174   -0.624328
 C   -3.338470    0.817356    0.346626
 C   -1.620393    2.081466   -0.575461
 C   -3.823559    2.002764   -0.070545
 C    2.485724   -2.540329    1.387286
 C    3.400857   -1.780900   -0.692772
 C    3.470688   -2.609112    0.416506
 H    0.677770   -1.591521    2.024261
 H    2.289767   -0.247380   -1.697910
 H   -2.911783    3.688585   -1.001702
 O   -0.533087    2.496441   -0.976876
 H    2.538014   -3.179168    2.256491
 H    4.163292   -1.834904   -1.455562
 H   -3.885700    0.022258    0.812370
 H   -4.822046    2.392590   -0.022599
 H    4.290043   -3.303353    0.524198
 H   -1.222282   -1.074020    0.800933
}
memory 20GB
set_num_threads(5)
psi4_io.set_default_path("/scratch/liuchw/Psi4-1_16_Index_0-farH_in17")
set freeze_core True
E, wfn = energy('wb97x-d/6-311+G*',return_wfn=True)
oeprop(wfn,"WIBERG_LOWDIN_INDICES")
clean()
--------------------------------------------------------------------------

    Molecular point group: c1

    Geometry (in Angstrom), charge = 0, multiplicity = 1:

       Center              X                  Y                   Z               Mass
    ------------   -----------------  -----------------  -----------------  -----------------
         H            0.515287183358     0.884447065396    -0.446346297119     1.007825032230
         N            0.344601183358    -0.036151934604    -0.026574297119    14.003074004430
         C            1.408436183358    -0.912258934604     0.159156702881    12.000000000000
         C            2.395833183358    -0.993817934604    -0.822519297119    12.000000000000
         C           -0.934957816642    -0.247718934604     0.306487702881    12.000000000000
         C            1.478312183358    -1.751728934604     1.269380702881    12.000000000000
         C           -1.887220816642     0.699422065396     0.063807702881    12.000000000000
         N           -2.760229816642     2.663054065396    -0.611038297119    14.003074004430
         C           -3.294326816642     0.718236065396     0.359915702881    12.000000000000
         C           -1.576249816642     1.982346065396    -0.562171297119    12.000000000000
         C           -3.779415816642     1.903644065396    -0.057255297119    12.000000000000
         C            2.529867183358    -2.639448934604     1.400575702881    12.000000000000
         C            3.445000183358    -1.880019934604    -0.679482297119    12.000000000000
         C            3.514831183358    -2.708231934604     0.429795702881    12.000000000000
         H            0.721913183358    -1.690640934604     2.037550702881     1.007825032230
         H            2.333910183358    -0.346499934604    -1.684620297119     1.007825032230
         H           -2.867639816642     3.589465065396    -0.988412297119     1.007825032230
         O           -0.488943816642     2.397321065396    -0.963586297119    15.994914619570
         H            2.582157183358    -3.278287934604     2.269780702881     1.007825032230
         H            4.207435183358    -1.934023934604    -1.442272297119     1.007825032230
         H           -3.841556816642    -0.076861934604     0.825659702881     1.007825032230
         H           -4.777902816642     2.293470065396    -0.009309297119     1.007825032230
         H            4.334186183358    -3.402472934604     0.537487702881     1.007825032230
         H           -1.178138816642    -1.173139934604     0.814222702881     1.007825032230

  Charge       = 0
  Multiplicity = 1
  Basis Set: 6-311+G*
    Blend: 6-311+G*
  Basis Set: (6-311+G* AUX)
    Blend: HEAVY-AUG-CC-PVTZ-JKFIT

    Orbital Energies [Eh]
    ---------------------

    Doubly Occupied:

       1A    -19.208737     2A    -14.474605     3A    -14.465338
       4A    -10.377074     5A    -10.354230     6A    -10.342401
       7A    -10.315125     8A    -10.298417     9A    -10.297691
      10A    -10.297306    11A    -10.295526    12A    -10.291977
      13A    -10.281005    14A    -10.277274    15A     -1.141464
      16A     -1.080799    17A     -1.060697    18A     -0.971528
      19A     -0.907784    20A     -0.865083    21A     -0.861228
      22A     -0.818040    23A     -0.772269    24A     -0.728651
      25A     -0.713692    26A     -0.684802    27A     -0.678811
      28A     -0.644261    29A     -0.604244    30A     -0.589587
      31A     -0.585708    32A     -0.554391    33A     -0.543100
      34A     -0.532191    35A     -0.523766    36A     -0.518502
      37A     -0.513630    38A     -0.500276    39A     -0.491063
      40A     -0.483951    41A     -0.454684    42A     -0.453081
      43A     -0.436788    44A     -0.415214    45A     -0.363594
      46A     -0.344910    47A     -0.340726    48A     -0.316365
      49A     -0.258862

  @DF-RKS Final Energy:  -609.84839203033368

   => Energetics <=

    Nuclear Repulsion Energy =            796.1458421043971612
    One-Electron Energy =               -2405.0066875622769658
    Two-Electron Energy =                1058.3609218697542929
    DFT Exchange-Correlation Energy =     -59.3357188443876638
    Empirical Dispersion Energy =          -0.0127495978204004
    VV10 Nonlocal Energy =                  0.0000000000000000
    Total Energy =                       -609.8483920303335708
 Dipole X            :         -2.3016608            1.9074026           -0.3942583
 Dipole Y            :          4.1413036           -4.8095903           -0.6682868
 Dipole Z            :         -1.3927341            1.7912957            0.3985617
 Magnitude           :                                                    0.8722948
*** Psi4 exiting successfully. Buy a developer a beer!
