   * xtb version 6.5.0 (97a52f5) compiled by 'conda@d2599ee0d4f4' on 2022-05-15
          program call               : /home/liuchw/anaconda3/envs/xtbenv/bin/xtb --gfn 2 --chrg 0 --uhf 0 1_16_Index_0-opt-2-3-051_preQMOPTprefit_xyzformat.xyz --opt --input xtb-opt-2-3-051_constr.txt

   ID    Z sym.   atoms
    1    1 H      1, 15-17, 19-24
    2    7 N      2, 8
    3    6 C      3-7, 9-14
    4    8 O      18
constraining angle 1 2 3 4 to   51.0034111°, actual value:   51.0034111°
constraining angle 5 2 3 4 to  232.0312149°, actual value: -127.9687851°
constraining angle 1 2 5 24 to  183.9704047°, actual value: -176.0295953°
constraining angle 3 2 5 24 to    2.9935205°, actual value:    2.9935205°
constraining angle 2 5 7 9 to  181.9983867°, actual value: -178.0016133°

          :  Hamiltonian                  GFN2-xTB          :
 * total energy  :   -38.5480388 Eh     change       -0.1095707E-08 Eh
 * total energy  :   -38.5554159 Eh     change       -0.7377056E-02 Eh
 * total energy  :   -38.5565338 Eh     change       -0.1117940E-02 Eh
 * total energy  :   -38.5567383 Eh     change       -0.2044584E-03 Eh
 * total energy  :   -38.5566539 Eh     change        0.8434843E-04 Eh
 * total energy  :   -38.5568701 Eh     change       -0.2161945E-03 Eh
 * total energy  :   -38.5568834 Eh     change       -0.1327024E-04 Eh
 * total energy  :   -38.5568992 Eh     change       -0.1580369E-04 Eh
 * total energy  :   -38.5569086 Eh     change       -0.9426017E-05 Eh
 * total energy  :   -38.5569150 Eh     change       -0.6403874E-05 Eh
 * total energy  :   -38.5569182 Eh     change       -0.3195142E-05 Eh
 * total energy  :   -38.5569226 Eh     change       -0.4396828E-05 Eh
 * total energy  :   -38.5569238 Eh     change       -0.1133506E-05 Eh
   *** GEOMETRY OPTIMIZATION CONVERGED AFTER 13 ITERATIONS ***

 final structure:
================
24
 xtb: 6.5.0 (97a52f5)
H            0.09905890389544        0.36468441706402       -1.19986390779136
N            0.20011088629054       -0.11474142720099       -0.29895512529504
C            1.29435681184214       -0.94844960296289       -0.05940556253102
C            2.58458967955420       -0.48410201315556       -0.30546712098385
C           -0.77547747883339        0.15479191886374        0.57635891671186
C            1.11522751535883       -2.20203041168496        0.52001134452485
C           -1.81670367599654        0.97048455163385        0.24074859026274
N           -3.07069718615551        2.34318363115718       -1.02966824445834
C           -2.94209133450274        1.42917692299961        1.00950038874219
C           -1.93257653736140        1.58765681827748       -1.07764599370243
C           -3.66800811020653        2.24176345344193        0.21742228131851
C            2.21121244225131       -2.99488848707893        0.80645261787550
C            3.67363947798336       -1.28571663472014       -0.02187782599291
C            3.49120189709794       -2.54144017987008        0.53528600822915
H            0.11479980289976       -2.55355822240658        0.72550564118385
H            2.71869835310713        0.49662219576550       -0.73699113401551
H           -3.41976080964600        2.89246200661082       -1.79686799156359
O           -1.17746899013545        1.48107817682953       -2.04424650489195
H            2.06450793382515       -3.97133604684521        1.24396227776171
H            4.67098870482609       -0.92331340691997       -0.22197444610759
H           -3.15248425548039        1.15949793290176        2.02518658189147
H           -4.57674598288291        2.77297364262428        0.42552758142988
H            4.34456173755550       -3.16305904916112        0.76009856702644
H           -0.68518778528652       -0.27276119616399        1.56818405037475

          :  Hamiltonian                  GFN2-xTB          :
         :: total energy             -38.556923753693 Eh    ::
         :: gradient norm              0.000490390296 Eh/a0 ::
         :: HOMO-LUMO gap              2.335860581605 eV    ::
         :: SCC energy               -39.187509780276 Eh    ::
         :: -> dispersion             -0.022195376361 Eh    ::
         :: repulsion energy           0.630726020179 Eh    ::

    * Orbital Energies and Occupations

         #    Occupation            Energy/Eh            Energy/eV
      -------------------------------------------------------------
         1        2.0000           -0.6810551             -18.5325
       ...           ...                  ...                  ...
        23        2.0000           -0.4846337             -13.1876
        24        2.0000           -0.4781009             -13.0098
        25        2.0000           -0.4745463             -12.9131
        26        2.0000           -0.4677727             -12.7287
        27        2.0000           -0.4595498             -12.5050
        28        2.0000           -0.4534719             -12.3396
        29        2.0000           -0.4412277             -12.0064
        30        2.0000           -0.4331717             -11.7872
        31        2.0000           -0.4181279             -11.3778
        32        2.0000           -0.4146655             -11.2836
        33        2.0000           -0.3914032             -10.6506
        34        2.0000           -0.3792506             -10.3199
        35        2.0000           -0.3475477              -9.4573 (HOMO)
        36                         -0.2617064              -7.1214 (LUMO)
        37                         -0.2324613              -6.3256
        38                         -0.2226000              -6.0573
        39                         -0.1674860              -4.5575
        40                         -0.1099703              -2.9924
        41                         -0.0990893              -2.6964
        42                          0.0196063               0.5335
        43                          0.0360208               0.9802
        44                          0.1102179               2.9992
        45                          0.1163887               3.1671
        46                          0.1310863               3.5670
       ...                                ...                  ...
        66                          0.7421952              20.1962
      -------------------------------------------------------------
                  HL-Gap            0.0858413 Eh            2.3359 eV

     #   Z          covCN         q      C6AA      α(0)
     1   1 H        0.859     0.226     0.982     1.553
     2   7 N        2.700    -0.116    23.532     7.205
     3   6 C        2.913     0.068    26.487     8.439
     4   6 C        2.923    -0.046    29.138     8.852
     5   6 C        2.834     0.044    27.014     8.517
     6   6 C        2.922    -0.044    29.103     8.847
     7   6 C        3.089    -0.071    29.648     8.925
     8   7 N        2.775    -0.147    24.170     7.302
     9   6 C        2.981    -0.071    29.769     8.950
    10   6 C        2.873     0.256    22.705     7.811
    11   6 C        2.991     0.002    27.979     8.677
    12   6 C        2.919    -0.028    28.691     8.784
    13   6 C        2.919    -0.027    28.665     8.780
    14   6 C        2.919    -0.034    28.843     8.807
    15   1 H        0.926     0.039     2.463     2.454
    16   1 H        0.926     0.043     2.411     2.428
    17   1 H        0.860     0.168     1.282     1.774
    18   8 O        0.857    -0.489    23.535     6.504
    19   1 H        0.926     0.037     2.485     2.465
    20   1 H        0.926     0.039     2.468     2.457
    21   1 H        0.926     0.032     2.563     2.503
    22   1 H        0.926     0.034     2.527     2.486
    23   1 H        0.926     0.036     2.500     2.472
    24   1 H        0.925     0.048     2.341     2.392

Wiberg/Mayer (AO) data.
largest (>0.10) Wiberg bond orders for each atom

     #   Z sym  total        # sym  WBO       # sym  WBO       # sym  WBO
 ---------------------------------------------------------------------------
     1   1 H    0.949 --     2 N    0.874
     2   7 N    3.544 --     5 C    1.310     3 C    1.060     1 H    0.874
     3   6 C    3.965 --     6 C    1.378     4 C    1.373     2 N    1.060
                            14 C    0.100
     4   6 C    3.986 --    13 C    1.456     3 C    1.373    16 H    0.969
                            12 C    0.109
     5   6 C    3.971 --     7 C    1.491     2 N    1.310    24 H    0.958
     6   6 C    3.987 --    12 C    1.449     3 C    1.378    15 H    0.968
                            13 C    0.107
     7   6 C    3.964 --     5 C    1.491     9 C    1.156    10 C    1.073
     8   7 N    3.512 --    10 C    1.180    11 C    1.126    17 H    0.943
                            18 O    0.143
     9   6 C    3.978 --    11 C    1.697     7 C    1.156    21 H    0.972
    10   6 C    3.950 --    18 O    1.566     8 N    1.180     7 C    1.073
    11   6 C    3.941 --     9 C    1.697     8 N    1.126    22 H    0.970
    12   6 C    3.992 --     6 C    1.449    14 C    1.437    19 H    0.970
                             4 C    0.109
    13   6 C    3.991 --     4 C    1.456    14 C    1.430    20 H    0.970
                             6 C    0.107
    14   6 C    3.979 --    12 C    1.437    13 C    1.430    23 H    0.971
                             3 C    0.100
    15   1 H    0.998 --     6 C    0.968
    16   1 H    0.998 --     4 C    0.969
    17   1 H    0.971 --     8 N    0.943
    18   8 O    1.971 --    10 C    1.566     8 N    0.143
    19   1 H    0.998 --    12 C    0.970
    20   1 H    0.998 --    13 C    0.970
    21   1 H    0.999 --     9 C    0.972
    22   1 H    0.998 --    11 C    0.970
    23   1 H    0.999 --    14 C    0.971
    24   1 H    0.997 --     5 C    0.958
 ---------------------------------------------------------------------------

molecular dipole:
                 x           y           z       tot (Debye)
 q only:        0.265      -0.447       0.822
   full:        0.004      -0.267       0.801       2.147

           -------------------------------------------------
          | TOTAL ENERGY              -38.556923753693 Eh   |
          | GRADIENT NORM               0.000490390296 Eh/α |
          | HOMO-LUMO GAP               2.335860581605 eV   |
           -------------------------------------------------

 * finished run on 2023/11/18 at 08:33:20.405
