                               Psi4 1.6 release

  ==> Input File <==

--------------------------------------------------------------------------
molecule {
0 1
 C    2.299118    0.100824    0.382020
 N    1.108595   -0.341100    0.852028
 C   -0.107163   -0.102205    0.168091
 C   -0.150085   -0.130533   -1.223145
 C    1.044661   -1.000550    2.137864
 C   -1.280804    0.134827    0.878567
 C   -2.470146    0.350410    0.206035
 C   -2.508001    0.330535   -1.176974
 C   -1.343222    0.090774   -1.885580
 H   -1.275054    0.165071    1.956789
 H    0.750778   -0.316387   -1.783011
 O    2.500907    0.698333   -0.644536
 H    0.695988   -0.323159    2.922432
 H    2.038918   -1.348646    2.414281
 H    0.368835   -1.854089    2.080588
 H   -3.371907    0.536715    0.770732
 H   -1.361540    0.067650   -2.964851
 H   -3.438519    0.499190   -1.697626
 H    3.122323   -0.158876    1.076882
}
memory 20GB
set_num_threads(5)
psi4_io.set_default_path("/scratch/liuchw/Psi4-3_24_Index_0-farH_in17")
set freeze_core True
E, wfn = energy('wb97x-d/6-311+G*',return_wfn=True)
oeprop(wfn,"WIBERG_LOWDIN_INDICES")
clean()
--------------------------------------------------------------------------

    Molecular point group: c1

    Geometry (in Angstrom), charge = 0, multiplicity = 1:

       Center              X                  Y                   Z               Mass
    ------------   -----------------  -----------------  -----------------  -----------------
         C            2.307644637921     0.093950453491     0.379962976565    12.000000000000
         N            1.117121637921    -0.347973546509     0.849970976565    14.003074004430
         C           -0.098636362079    -0.109078546509     0.166033976565    12.000000000000
         C           -0.141558362079    -0.137406546509    -1.225202023435    12.000000000000
         C            1.053187637921    -1.007423546509     2.135806976565    12.000000000000
         C           -1.272277362079     0.127953453491     0.876509976565    12.000000000000
         C           -2.461619362079     0.343536453491     0.203977976565    12.000000000000
         C           -2.499474362079     0.323661453491    -1.179031023435    12.000000000000
         C           -1.334695362079     0.083900453491    -1.887637023435    12.000000000000
         H           -1.266527362079     0.158197453491     1.954731976565     1.007825032230
         H            0.759304637921    -0.323260546509    -1.785068023435     1.007825032230
         O            2.509433637921     0.691459453491    -0.646593023435    15.994914619570
         H            0.704514637921    -0.330032546509     2.920374976565     1.007825032230
         H            2.047444637921    -1.355519546509     2.412223976565     1.007825032230
         H            0.377361637921    -1.860962546509     2.078530976565     1.007825032230
         H           -3.363380362079     0.529841453491     0.768674976565     1.007825032230
         H           -1.353013362079     0.060776453491    -2.966908023435     1.007825032230
         H           -3.429992362079     0.492316453491    -1.699683023435     1.007825032230
         H            3.130849637921    -0.165749546509     1.074824976565     1.007825032230

  Charge       = 0
  Multiplicity = 1
  Basis Set: 6-311+G*
    Blend: 6-311+G*
  Basis Set: (6-311+G* AUX)
    Blend: HEAVY-AUG-CC-PVTZ-JKFIT

    Orbital Energies [Eh]
    ---------------------

    Doubly Occupied:

       1A    -19.222420     2A    -14.484869     3A    -10.390283
       4A    -10.337564     5A    -10.334300     6A    -10.295313
       7A    -10.293251     8A    -10.290144     9A    -10.288088
      10A    -10.287209    11A     -1.158417    12A     -1.071676
      13A     -0.966409    14A     -0.865508    15A     -0.859956
      16A     -0.822839    17A     -0.752441    18A     -0.712057
      19A     -0.672732    20A     -0.617638    21A     -0.608811
      22A     -0.577495    23A     -0.575134    24A     -0.545233
      25A     -0.537140    26A     -0.516067    27A     -0.509481
      28A     -0.501109    29A     -0.489611    30A     -0.466843
      31A     -0.450738    32A     -0.437992    33A     -0.379385
      34A     -0.353495    35A     -0.335313    36A     -0.307769

  @DF-RKS Final Energy:  -440.19953907570800

   => Energetics <=

    Nuclear Repulsion Energy =            499.6778115473836692
    One-Electron Energy =               -1585.9558383007879456
    Two-Electron Energy =                 689.0408702468013189
    DFT Exchange-Correlation Energy =     -42.9522985215354183
    Empirical Dispersion Energy =          -0.0100840475696291
    VV10 Nonlocal Energy =                  0.0000000000000000
    Total Energy =                       -440.1995390757079463
 Dipole X            :          1.6276535           -2.2349622           -0.6073087
 Dipole Y            :          1.8530565           -2.6153249           -0.7622684
 Dipole Z            :         -3.3008126            4.4546255            1.1538129
 Magnitude           :                                                    1.5103514
*** Psi4 exiting successfully. Buy a developer a beer!
