                               Psi4 1.6 release

  ==> Input File <==

--------------------------------------------------------------------------
molecule {
0 1
 C    2.334672   -0.043006    0.387619
 N    1.096143   -0.296939    0.881009
 C   -0.104652   -0.137985    0.151520
 C   -0.094563    0.163142   -1.210962
 C    1.007206   -0.729568    2.261731
 C   -1.339662   -0.220954    0.797333
 C   -2.518392   -0.055841    0.092088
 C   -2.499323    0.211793   -1.264157
 C   -1.278549    0.325986   -1.905282
 H   -1.410161   -0.400154    1.857426
 H    0.840603    0.259114   -1.733534
 O    2.647098    0.316379   -0.719583
 H    1.973732   -1.105669    2.591014
 H    0.270111   -1.525394    2.361582
 H    0.715010    0.099503    2.913220
 H   -3.459459   -0.131518    0.617194
 H   -1.240346    0.549138   -2.961091
 H   -3.421746    0.338041   -1.810270
 H    3.105958   -0.217283    1.163727
}
memory 20GB
set_num_threads(5)
psi4_io.set_default_path("/scratch/liuchw/Psi4-3_24_Index_0-farH_in17")
set freeze_core True
E, wfn = energy('wb97x-d/6-311+G*',return_wfn=True)
oeprop(wfn,"WIBERG_LOWDIN_INDICES")
clean()
--------------------------------------------------------------------------

    Molecular point group: c1

    Geometry (in Angstrom), charge = 0, multiplicity = 1:

       Center              X                  Y                   Z               Mass
    ------------   -----------------  -----------------  -----------------  -----------------
         C            2.326354191646     0.009454244775     0.405504506447    12.000000000000
         N            1.087825191646    -0.244478755225     0.898894506447    14.003074004430
         C           -0.112969808354    -0.085524755225     0.169405506447    12.000000000000
         C           -0.102880808354     0.215602244775    -1.193076493553    12.000000000000
         C            0.998888191646    -0.677107755225     2.279616506447    12.000000000000
         C           -1.347979808354    -0.168493755225     0.815218506447    12.000000000000
         C           -2.526709808354    -0.003380755225     0.109973506447    12.000000000000
         C           -2.507640808354     0.264253244775    -1.246271493553    12.000000000000
         C           -1.286866808354     0.378446244775    -1.887396493553    12.000000000000
         H           -1.418478808354    -0.347693755225     1.875311506447     1.007825032230
         H            0.832285191646     0.311574244775    -1.715648493553     1.007825032230
         O            2.638780191646     0.368839244775    -0.701697493553    15.994914619570
         H            1.965414191646    -1.053208755225     2.608899506447     1.007825032230
         H            0.261793191646    -1.472933755225     2.379467506447     1.007825032230
         H            0.706692191646     0.151963244775     2.931105506447     1.007825032230
         H           -3.467776808354    -0.079057755225     0.635079506447     1.007825032230
         H           -1.248663808354     0.601598244775    -2.943205493553     1.007825032230
         H           -3.430063808354     0.390501244775    -1.792384493553     1.007825032230
         H            3.097640191646    -0.164822755225     1.181612506447     1.007825032230

  Charge       = 0
  Multiplicity = 1
  Basis Set: 6-311+G*
    Blend: 6-311+G*
  Basis Set: (6-311+G* AUX)
    Blend: HEAVY-AUG-CC-PVTZ-JKFIT

    Orbital Energies [Eh]
    ---------------------

    Doubly Occupied:

       1A    -19.227630     2A    -14.491961     3A    -10.394293
       4A    -10.342002     5A    -10.335750     6A    -10.294552
       7A    -10.292424     8A    -10.288316     9A    -10.285614
      10A    -10.281670    11A     -1.162180    12A     -1.076185
      13A     -0.965729    14A     -0.866837    15A     -0.859280
      16A     -0.823924    17A     -0.755435    18A     -0.709176
      19A     -0.674360    20A     -0.619201    21A     -0.607776
      22A     -0.579451    23A     -0.576389    24A     -0.550457
      25A     -0.536047    26A     -0.515978    27A     -0.509684
      28A     -0.498960    29A     -0.494781    30A     -0.467357
      31A     -0.452361    32A     -0.434373    33A     -0.391158
      34A     -0.350067    35A     -0.336639    36A     -0.304826

  @DF-RKS Final Energy:  -440.19812128139205

   => Energetics <=

    Nuclear Repulsion Energy =            498.7905435775318210
    One-Electron Energy =               -1584.1017403572500371
    Two-Electron Energy =                 688.0769658525013028
    DFT Exchange-Correlation Energy =     -42.9540256775543412
    Empirical Dispersion Energy =          -0.0098646766209003
    VV10 Nonlocal Energy =                  0.0000000000000000
    Total Energy =                       -440.1981212813920479
 Dipole X            :          1.8967111           -2.5227337           -0.6260227
 Dipole Y            :          1.1132657           -1.5556667           -0.4424011
 Dipole Z            :         -3.5503090            4.8315827            1.2812737
 Magnitude           :                                                    1.4930791
*** Psi4 exiting successfully. Buy a developer a beer!
