                               Psi4 1.6 release

  ==> Input File <==

--------------------------------------------------------------------------
molecule {
0 1
 C    2.282634    0.122404    0.377265
 N    1.101837   -0.308452    0.879012
 C   -0.121430   -0.094761    0.192174
 C   -0.168686   -0.173927   -1.196702
 C    1.074930   -1.071186    2.107409
 C   -1.283888    0.216506    0.891751
 C   -2.468591    0.436311    0.213177
 C   -2.511926    0.355510   -1.167618
 C   -1.356827    0.052611   -1.867023
 H   -1.274428    0.307024    1.966899
 H    0.724520   -0.409188   -1.750418
 O    2.467765    0.683800   -0.672731
 H    0.350753   -0.663630    2.812037
 H    2.055288   -1.032945    2.579543
 H    0.812926   -2.112121    1.902138
 H   -3.361505    0.678698    0.770522
 H   -1.377702   -0.012968   -2.944499
 H   -3.438605    0.529980   -1.693166
 H    3.116617   -0.104880    1.070817
}
memory 20GB
set_num_threads(5)
psi4_io.set_default_path("/scratch/liuchw/Psi4-3_24_Index_0-farH_in17")
set freeze_core True
E, wfn = energy('wb97x-d/6-311+G*',return_wfn=True)
oeprop(wfn,"WIBERG_LOWDIN_INDICES")
clean()
--------------------------------------------------------------------------

    Molecular point group: c1

    Geometry (in Angstrom), charge = 0, multiplicity = 1:

       Center              X                  Y                   Z               Mass
    ------------   -----------------  -----------------  -----------------  -----------------
         C            2.298592335120     0.108355078025     0.370568020582    12.000000000000
         N            1.117795335120    -0.322500921975     0.872315020582    14.003074004430
         C           -0.105471664880    -0.108809921975     0.185477020582    12.000000000000
         C           -0.152727664880    -0.187975921975    -1.203398979418    12.000000000000
         C            1.090888335120    -1.085234921975     2.100712020582    12.000000000000
         C           -1.267929664880     0.202457078025     0.885054020582    12.000000000000
         C           -2.452632664880     0.422262078025     0.206480020582    12.000000000000
         C           -2.495967664880     0.341461078025    -1.174314979418    12.000000000000
         C           -1.340868664880     0.038562078025    -1.873719979418    12.000000000000
         H           -1.258469664880     0.292975078025     1.960202020582     1.007825032230
         H            0.740478335120    -0.423236921975    -1.757114979418     1.007825032230
         O            2.483723335120     0.669751078025    -0.679427979418    15.994914619570
         H            0.366711335120    -0.677678921975     2.805340020582     1.007825032230
         H            2.071246335120    -1.046993921975     2.572846020582     1.007825032230
         H            0.828884335120    -2.126169921975     1.895441020582     1.007825032230
         H           -3.345546664880     0.664649078025     0.763825020582     1.007825032230
         H           -1.361743664880    -0.027016921975    -2.951195979418     1.007825032230
         H           -3.422646664880     0.515931078025    -1.699862979418     1.007825032230
         H            3.132575335120    -0.118928921975     1.064120020582     1.007825032230

  Charge       = 0
  Multiplicity = 1
  Basis Set: 6-311+G*
    Blend: 6-311+G*
  Basis Set: (6-311+G* AUX)
    Blend: HEAVY-AUG-CC-PVTZ-JKFIT

    Orbital Energies [Eh]
    ---------------------

    Doubly Occupied:

       1A    -19.220862     2A    -14.483837     3A    -10.389038
       4A    -10.337442     5A    -10.333583     6A    -10.296115
       7A    -10.293512     8A    -10.290421     9A    -10.288927
      10A    -10.287858    11A     -1.157136    12A     -1.069983
      13A     -0.966833    14A     -0.865540    15A     -0.859974
      16A     -0.822048    17A     -0.751645    18A     -0.712837
      19A     -0.673079    20A     -0.617517    21A     -0.608279
      22A     -0.576844    23A     -0.575289    24A     -0.544851
      25A     -0.537510    26A     -0.516086    27A     -0.508743
      28A     -0.499819    29A     -0.489041    30A     -0.466894
      31A     -0.450297    32A     -0.438800    33A     -0.376899
      34A     -0.353039    35A     -0.334927    36A     -0.309006

  @DF-RKS Final Energy:  -440.19809013856872

   => Energetics <=

    Nuclear Repulsion Energy =            499.5555500925918864
    One-Electron Energy =               -1585.7293142250841811
    Two-Electron Energy =                 688.9375463718307628
    DFT Exchange-Correlation Energy =     -42.9519339186543050
    Empirical Dispersion Energy =          -0.0099384592529022
    VV10 Nonlocal Energy =                  0.0000000000000000
    Total Energy =                       -440.1980901385687730
 Dipole X            :          1.4850840           -2.0992228           -0.6141388
 Dipole Y            :          2.0020490           -2.7580711           -0.7560221
 Dipole Z            :         -3.2075853            4.3568098            1.1492245
 Magnitude           :                                                    1.5064704
*** Psi4 exiting successfully. Buy a developer a beer!
