   * xtb version 6.5.0 (97a52f5) compiled by 'conda@d2599ee0d4f4' on 2022-05-15
          program call               : /home/liuchw/anaconda3/envs/xtbenv/bin/xtb --gfn 2 --chrg 0 --uhf 0 3_24_Index_0-opt-2-3-127_preQMOPTprefit_xyzformat.xyz --opt --input xtb-opt-2-3-127_constr.txt

   ID    Z sym.   atoms
    1    6 C      1, 3-9
    2    7 N      2
    3    1 H      10, 11, 13-19
    4    8 O      12
constraining angle 1 2 3 4 to  126.9462067°, actual value:  126.9462067°
constraining angle 1 2 5 14 to  220.9954060°, actual value: -139.0045940°
constraining angle 12 1 2 3 to  358.0010040°, actual value:   -1.9989960°

          :  Hamiltonian                  GFN2-xTB          :
 * total energy  :   -28.6901311 Eh     change       -0.1104929E-09 Eh
 * total energy  :   -28.6974405 Eh     change       -0.7309427E-02 Eh
 * total energy  :   -28.6983027 Eh     change       -0.8622125E-03 Eh
 * total energy  :   -28.6982474 Eh     change        0.5531947E-04 Eh
 * total energy  :   -28.6987266 Eh     change       -0.4791850E-03 Eh
 * total energy  :   -28.6987922 Eh     change       -0.6560393E-04 Eh
 * total energy  :   -28.6988553 Eh     change       -0.6311735E-04 Eh
 * total energy  :   -28.6989255 Eh     change       -0.7020843E-04 Eh
 * total energy  :   -28.6989638 Eh     change       -0.3829525E-04 Eh
 * total energy  :   -28.6989700 Eh     change       -0.6220369E-05 Eh
 * total energy  :   -28.6989724 Eh     change       -0.2386388E-05 Eh
 * total energy  :   -28.6989734 Eh     change       -0.1004157E-05 Eh
   *** GEOMETRY OPTIMIZATION CONVERGED AFTER 12 ITERATIONS ***

 final structure:
================
19
 xtb: 6.5.0 (97a52f5)
C            1.79190574028884        0.86719599160572        1.31998551600244
N            1.05904988793846       -0.21557076547098        0.98329142990588
C           -0.13959723527820       -0.06652838775777        0.23320315359266
C           -0.33037383901019       -0.79175571344529       -0.93679321072914
C            1.41310539586474       -1.53965359180471        1.43988094515624
C           -1.11480337445716        0.82693013309099        0.65744354002658
C           -2.27485862959025        0.98355486022248       -0.07964061956597
C           -2.47174742182921        0.24969128549928       -1.23674532144858
C           -1.49644429789084       -0.63563742525520       -1.66356792428968
H           -0.95515750270306        1.40214602182975        1.55561339517971
H            0.43539916542306       -1.46748305528420       -1.28855413225011
O            1.55659208496206        2.00980567301657        1.01723221514910
H            2.45368400094153       -1.55274197885485        1.75995522362139
H            1.27924152010998       -2.26808235876563        0.64134713689529
H            0.77996403093765       -1.83618688992379        2.28214164508105
H           -3.02858932560188        1.68095587397473        0.25407318532945
H           -1.63844687684816       -1.20184882727859       -2.57226160332799
H           -3.37926246117483        0.37124125596054       -1.80885011006048
H            2.68402415791741        0.58275489864113        1.91283155573226

          :  Hamiltonian                  GFN2-xTB          :
         :: total energy             -28.698973425075 Eh    ::
         :: gradient norm              0.000548957094 Eh/a0 ::
         :: HOMO-LUMO gap              4.125238434095 eV    ::
         :: SCC energy               -29.149493917365 Eh    ::
         :: -> dispersion             -0.016017652202 Eh    ::
         :: repulsion energy           0.450454658292 Eh    ::

    * Orbital Energies and Occupations

         #    Occupation            Energy/Eh            Energy/eV
      -------------------------------------------------------------
         1        2.0000           -0.6980011             -18.9936
       ...           ...                  ...                  ...
        14        2.0000           -0.5106288             -13.8949
        15        2.0000           -0.5054981             -13.7553
        16        2.0000           -0.5008101             -13.6277
        17        2.0000           -0.4942158             -13.4483
        18        2.0000           -0.4885853             -13.2951
        19        2.0000           -0.4847422             -13.1905
        20        2.0000           -0.4837985             -13.1648
        21        2.0000           -0.4423716             -12.0375
        22        2.0000           -0.4385083             -11.9324
        23        2.0000           -0.4219254             -11.4812
        24        2.0000           -0.4128006             -11.2329
        25        2.0000           -0.3964029             -10.7867
        26        2.0000           -0.3888037             -10.5799 (HOMO)
        27                         -0.2372039              -6.4546 (LUMO)
        28                         -0.2309663              -6.2849
        29                         -0.2042526              -5.5580
        30                         -0.1008079              -2.7431
        31                         -0.0047172              -0.1284
        32                          0.0790369               2.1507
        33                          0.1067672               2.9053
        34                          0.1308972               3.5619
        35                          0.1500728               4.0837
        36                          0.1607944               4.3754
        37                          0.1722729               4.6878
       ...                                ...                  ...
        49                          0.6693291              18.2134
      -------------------------------------------------------------
                  HL-Gap            0.1515997 Eh            4.1252 eV

     #   Z          covCN         q      C6AA      α(0)
     1   6 C        2.713     0.248    22.830     7.821
     2   7 N        2.735    -0.085    22.898     7.107
     3   6 C        2.925     0.072    26.390     8.424
     4   6 C        2.922    -0.042    29.034     8.836
     5   6 C        3.698    -0.047    21.592     6.646
     6   6 C        2.922    -0.031    28.774     8.797
     7   6 C        2.921    -0.025    28.635     8.775
     8   6 C        2.919    -0.031    28.771     8.796
     9   6 C        2.921    -0.028    28.703     8.786
    10   1 H        0.926     0.053     2.286     2.364
    11   1 H        0.926     0.036     2.506     2.475
    12   8 O        0.857    -0.407    21.824     6.263
    13   1 H        0.925     0.058     2.219     2.329
    14   1 H        0.925     0.062     2.175     2.306
    15   1 H        0.924     0.052     2.295     2.369
    16   1 H        0.926     0.041     2.430     2.437
    17   1 H        0.926     0.038     2.481     2.463
    18   1 H        0.926     0.038     2.476     2.461
    19   1 H        0.922    -0.002     3.088     2.748

Wiberg/Mayer (AO) data.
largest (>0.10) Wiberg bond orders for each atom

     #   Z sym  total        # sym  WBO       # sym  WBO       # sym  WBO
 ---------------------------------------------------------------------------
     1   6 C    3.955 --    12 O    1.730     2 N    1.246    19 H    0.917
     2   7 N    3.521 --     1 C    1.246     3 C    1.002     5 C    0.997
                            12 O    0.204
     3   6 C    3.963 --     6 C    1.397     4 C    1.396     2 N    1.002
                             8 C    0.105
     4   6 C    3.991 --     9 C    1.447     3 C    1.396    11 H    0.967
                             7 C    0.110
     5   6 C    3.971 --     2 N    0.997    13 H    0.978    14 H    0.976
                            15 H    0.975
     6   6 C    3.990 --     7 C    1.444     3 C    1.397    10 H    0.968
                             9 C    0.110
     7   6 C    3.992 --     6 C    1.444     8 C    1.440    16 H    0.970
                             4 C    0.110
     8   6 C    3.992 --     7 C    1.440     9 C    1.435    18 H    0.971
                             3 C    0.105
     9   6 C    3.992 --     4 C    1.447     8 C    1.435    17 H    0.971
                             6 C    0.110
    10   1 H    0.997 --     6 C    0.968
    11   1 H    0.999 --     4 C    0.967
    12   8 O    2.036 --     1 C    1.730     2 N    0.204
    13   1 H    0.996 --     5 C    0.978
    14   1 H    0.996 --     5 C    0.976
    15   1 H    0.997 --     5 C    0.975
    16   1 H    0.998 --     7 C    0.970
    17   1 H    0.998 --     9 C    0.971
    18   1 H    0.998 --     8 C    0.971
    19   1 H    0.999 --     1 C    0.917
 ---------------------------------------------------------------------------

molecular dipole:
                 x           y           z       tot (Debye)
 q only:       -0.421      -1.497       0.044
   full:       -0.278      -1.704       0.148       4.404

           -------------------------------------------------
          | TOTAL ENERGY              -28.698973425075 Eh   |
          | GRADIENT NORM               0.000548957094 Eh/α |
          | HOMO-LUMO GAP               4.125238434095 eV   |
           -------------------------------------------------

 * finished run on 2023/11/18 at 08:18:42.723
