   * xtb version 6.5.0 (97a52f5) compiled by 'conda@d2599ee0d4f4' on 2022-05-15
          program call               : /home/liuchw/anaconda3/envs/xtbenv/bin/xtb --gfn 2 --chrg 0 --uhf 0 3_24_Index_0-opt-2-5-281_preQMOPTprefit_xyzformat.xyz --opt --input xtb-opt-2-5-281_constr.txt

   ID    Z sym.   atoms
    1    6 C      1, 3-9
    2    7 N      2
    3    1 H      10, 11, 13-19
    4    8 O      12
constraining angle 1 2 5 14 to  281.0136231°, actual value:  -78.9863769°
constraining angle 1 2 3 4 to   37.1076359°, actual value:   37.1076359°
constraining angle 12 1 2 3 to  358.0046453°, actual value:   -1.9953547°

          :  Hamiltonian                  GFN2-xTB          :
 * total energy  :   -28.6881158 Eh     change       -0.9866774E-09 Eh
 * total energy  :   -28.6966832 Eh     change       -0.8567386E-02 Eh
 * total energy  :   -28.6968254 Eh     change       -0.1421583E-03 Eh
 * total energy  :   -28.6972151 Eh     change       -0.3897192E-03 Eh
 * total energy  :   -28.6979955 Eh     change       -0.7804203E-03 Eh
 * total energy  :   -28.6981238 Eh     change       -0.1282494E-03 Eh
 * total energy  :   -28.6981797 Eh     change       -0.5590997E-04 Eh
 * total energy  :   -28.6982479 Eh     change       -0.6823377E-04 Eh
 * total energy  :   -28.6982842 Eh     change       -0.3633444E-04 Eh
 * total energy  :   -28.6982958 Eh     change       -0.1158465E-04 Eh
 * total energy  :   -28.6983004 Eh     change       -0.4557854E-05 Eh
 * total energy  :   -28.6983013 Eh     change       -0.8807977E-06 Eh
   *** GEOMETRY OPTIMIZATION CONVERGED AFTER 12 ITERATIONS ***

 final structure:
================
19
 xtb: 6.5.0 (97a52f5)
C            2.24642732861505        0.25478375558707        0.47054103558476
N            1.07755905308792       -0.26457339568322        0.91453857753977
C           -0.13188435869688       -0.10882500476894        0.19215651704219
C           -0.12958284116884       -0.14892712708524       -1.19873221821911
C            1.08952262012171       -1.05877430564855        2.12697391128026
C           -1.32625218567440        0.14774551476406        0.86069469316130
C           -2.49855307201184        0.32663440643019        0.15008157161138
C           -2.49540330134249        0.26974154608311       -1.23295869805213
C           -1.30619819915650        0.03748291145459       -1.90142523169212
H           -1.34764000603967        0.23150408330085        1.93718281247117
H            0.79100738906348       -0.32845320437347       -1.72807411319124
O            2.43431615540396        0.85919521772074       -0.55498450686939
H            1.74004864065323       -0.60397770635359        2.87372866461743
H            1.44854789426369       -2.07030628798179        1.91343088290420
H            0.08747456440302       -1.13896212705047        2.53742896386001
H           -3.41733769187197        0.52353710071027        0.68280589113734
H           -1.29026353660377       -0.00069843711070       -2.98031168924216
H           -3.41240585002201        0.41327510529991       -1.78417225828555
H            3.06429839697636        0.05838491470514        1.19168119434188

          :  Hamiltonian                  GFN2-xTB          :
         :: total energy             -28.698301260059 Eh    ::
         :: gradient norm              0.000809087797 Eh/a0 ::
         :: HOMO-LUMO gap              3.976936521432 eV    ::
         :: SCC energy               -29.148063537021 Eh    ::
         :: -> dispersion             -0.015948249457 Eh    ::
         :: repulsion energy           0.449701180527 Eh    ::

    * Orbital Energies and Occupations

         #    Occupation            Energy/Eh            Energy/eV
      -------------------------------------------------------------
         1        2.0000           -0.7010138             -19.0756
       ...           ...                  ...                  ...
        14        2.0000           -0.5124706             -13.9450
        15        2.0000           -0.5072837             -13.8039
        16        2.0000           -0.4993568             -13.5882
        17        2.0000           -0.4955713             -13.4852
        18        2.0000           -0.4864892             -13.2380
        19        2.0000           -0.4832900             -13.1510
        20        2.0000           -0.4805223             -13.0757
        21        2.0000           -0.4416933             -12.0191
        22        2.0000           -0.4389860             -11.9454
        23        2.0000           -0.4252433             -11.5715
        24        2.0000           -0.4104423             -11.1687
        25        2.0000           -0.3966826             -10.7943
        26        2.0000           -0.3851682             -10.4810 (HOMO)
        27                         -0.2390185              -6.5040 (LUMO)
        28                         -0.2284972              -6.2177
        29                         -0.2025020              -5.5104
        30                         -0.0970939              -2.6421
        31                         -0.0097155              -0.2644
        32                          0.0826449               2.2489
        33                          0.1035420               2.8175
        34                          0.1350446               3.6748
        35                          0.1468089               3.9949
        36                          0.1573475               4.2816
        37                          0.1770878               4.8188
       ...                                ...                  ...
        49                          0.6706362              18.2489
      -------------------------------------------------------------
                  HL-Gap            0.1461497 Eh            3.9769 eV

     #   Z          covCN         q      C6AA      α(0)
     1   6 C        2.714     0.248    22.841     7.823
     2   7 N        2.734    -0.080    22.806     7.093
     3   6 C        2.918     0.070    26.444     8.433
     4   6 C        2.923    -0.036    28.886     8.814
     5   6 C        3.701    -0.050    21.641     6.652
     6   6 C        2.922    -0.046    29.154     8.855
     7   6 C        2.920    -0.029    28.728     8.790
     8   6 C        2.919    -0.033    28.821     8.804
     9   6 C        2.921    -0.026    28.655     8.778
    10   1 H        0.926     0.033     2.542     2.493
    11   1 H        0.926     0.063     2.168     2.303
    12   8 O        0.857    -0.402    21.716     6.248
    13   1 H        0.925     0.057     2.240     2.340
    14   1 H        0.924     0.053     2.286     2.365
    15   1 H        0.925     0.068     2.108     2.270
    16   1 H        0.926     0.035     2.514     2.480
    17   1 H        0.926     0.040     2.444     2.445
    18   1 H        0.926     0.036     2.504     2.475
    19   1 H        0.922     0.001     3.038     2.726

Wiberg/Mayer (AO) data.
largest (>0.10) Wiberg bond orders for each atom

     #   Z sym  total        # sym  WBO       # sym  WBO       # sym  WBO
 ---------------------------------------------------------------------------
     1   6 C    3.954 --    12 O    1.735     2 N    1.238    19 H    0.919
     2   7 N    3.534 --     1 C    1.238     3 C    1.022     5 C    0.995
                            12 O    0.195
     3   6 C    3.961 --     4 C    1.387     6 C    1.385     2 N    1.022
                             8 C    0.102
     4   6 C    3.989 --     9 C    1.446     3 C    1.387    11 H    0.966
                             7 C    0.109
     5   6 C    3.969 --     2 N    0.995    13 H    0.979    14 H    0.976
                            15 H    0.976
     6   6 C    3.991 --     7 C    1.450     3 C    1.385    10 H    0.964
                             9 C    0.109
     7   6 C    3.992 --     6 C    1.450     8 C    1.433    16 H    0.971
                             4 C    0.109
     8   6 C    3.992 --     9 C    1.438     7 C    1.433    18 H    0.971
                             3 C    0.102
     9   6 C    3.992 --     4 C    1.446     8 C    1.438    17 H    0.970
                             6 C    0.109
    10   1 H    0.999 --     6 C    0.964
    11   1 H    0.996 --     4 C    0.966
    12   8 O    2.042 --     1 C    1.735     2 N    0.195
    13   1 H    0.996 --     5 C    0.979
    14   1 H    0.997 --     5 C    0.976
    15   1 H    0.995 --     5 C    0.976
    16   1 H    0.998 --     7 C    0.971
    17   1 H    0.998 --     9 C    0.970
    18   1 H    0.999 --     8 C    0.971
    19   1 H    0.999 --     1 C    0.919
 ---------------------------------------------------------------------------

molecular dipole:
                 x           y           z       tot (Debye)
 q only:       -0.798      -0.825       0.933
   full:       -0.746      -0.927       1.186       4.271

           -------------------------------------------------
          | TOTAL ENERGY              -28.698301260059 Eh   |
          | GRADIENT NORM               0.000809087797 Eh/α |
          | HOMO-LUMO GAP               3.976936521432 eV   |
           -------------------------------------------------

 * finished run on 2023/11/18 at 08:22:00.816
