                               Psi4 1.6 release

  ==> Input File <==

--------------------------------------------------------------------------
molecule {
0 1
 C    2.248907    0.293380    0.492925
 N    1.082868   -0.237841    0.928571
 C   -0.123449   -0.088015    0.196362
 C   -0.108415   -0.121680   -1.194976
 C    1.059951   -1.045483    2.127937
 C   -1.332493    0.116651    0.855114
 C   -2.501638    0.274739    0.133788
 C   -2.483461    0.236524   -1.249471
 C   -1.282101    0.040926   -1.907972
 H   -1.372566    0.171335    1.932045
 H    0.821294   -0.272674   -1.717084
 O    2.435532    0.902891   -0.529531
 H    2.022484   -0.968617    2.631703
 H    0.887341   -2.094482    1.872596
 H    0.286129   -0.717227    2.819639
 H   -3.431416    0.434771    0.659764
 H   -1.254788    0.010585   -2.986918
 H   -3.398548    0.361174   -1.808442
 H    3.068052    0.101831    1.214535
}
memory 20GB
set_num_threads(5)
psi4_io.set_default_path("/scratch/liuchw/Psi4-3_24_Index_0-farH_in17")
set freeze_core True
E, wfn = energy('wb97x-d/6-311+G*',return_wfn=True)
oeprop(wfn,"WIBERG_LOWDIN_INDICES")
clean()
--------------------------------------------------------------------------

    Molecular point group: c1

    Geometry (in Angstrom), charge = 0, multiplicity = 1:

       Center              X                  Y                   Z               Mass
    ------------   -----------------  -----------------  -----------------  -----------------
         C            2.267737161022     0.259329899028     0.473442265637    12.000000000000
         N            1.101698161022    -0.271891100972     0.909088265637    14.003074004430
         C           -0.104618838978    -0.122065100972     0.176879265637    12.000000000000
         C           -0.089584838978    -0.155730100972    -1.214458734363    12.000000000000
         C            1.078781161022    -1.079533100972     2.108454265637    12.000000000000
         C           -1.313662838978     0.082600899028     0.835631265637    12.000000000000
         C           -2.482807838978     0.240688899028     0.114305265637    12.000000000000
         C           -2.464630838978     0.202473899028    -1.268953734363    12.000000000000
         C           -1.263270838978     0.006875899028    -1.927454734363    12.000000000000
         H           -1.353735838978     0.137284899028     1.912562265637     1.007825032230
         H            0.840124161022    -0.306724100972    -1.736566734363     1.007825032230
         O            2.454362161022     0.868840899028    -0.549013734363    15.994914619570
         H            2.041314161022    -1.002667100972     2.612220265637     1.007825032230
         H            0.906171161022    -2.128532100972     1.853113265637     1.007825032230
         H            0.304959161022    -0.751277100972     2.800156265637     1.007825032230
         H           -3.412585838978     0.400720899028     0.640281265637     1.007825032230
         H           -1.235957838978    -0.023465100972    -3.006400734363     1.007825032230
         H           -3.379717838978     0.327123899028    -1.827924734363     1.007825032230
         H            3.086882161022     0.067780899028     1.195052265637     1.007825032230

  Charge       = 0
  Multiplicity = 1
  Basis Set: 6-311+G*
    Blend: 6-311+G*
  Basis Set: (6-311+G* AUX)
    Blend: HEAVY-AUG-CC-PVTZ-JKFIT

    Orbital Energies [Eh]
    ---------------------

    Doubly Occupied:

       1A    -19.220898     2A    -14.483800     3A    -10.389083
       4A    -10.337371     5A    -10.333557     6A    -10.296099
       7A    -10.293511     8A    -10.290426     9A    -10.288929
      10A    -10.287852    11A     -1.157205    12A     -1.069989
      13A     -0.966825    14A     -0.865532    15A     -0.859957
      16A     -0.822003    17A     -0.751664    18A     -0.712857
      19A     -0.673078    20A     -0.617484    21A     -0.608317
      22A     -0.576722    23A     -0.575472    24A     -0.544590
      25A     -0.537593    26A     -0.516011    27A     -0.508935
      28A     -0.499802    29A     -0.489040    30A     -0.466874
      31A     -0.450276    32A     -0.438779    33A     -0.376839
      34A     -0.353062    35A     -0.334950    36A     -0.309067

  @DF-RKS Final Energy:  -440.19810810926185

   => Energetics <=

    Nuclear Repulsion Energy =            499.5600621535577943
    One-Electron Energy =               -1585.7384829220850406
    Two-Electron Energy =                 688.9422176901385910
    DFT Exchange-Correlation Energy =     -42.9519649469146430
    Empirical Dispersion Energy =          -0.0099400839585720
    VV10 Nonlocal Energy =                  0.0000000000000000
    Total Energy =                       -440.1981081092619092
 Dipole X            :          1.4540080           -2.0562269           -0.6022189
 Dipole Y            :          2.2295344           -3.0697056           -0.8401712
 Dipole Z            :         -3.0647223            4.1594235            1.0947012
 Magnitude           :                                                    1.5056314
*** Psi4 exiting successfully. Buy a developer a beer!
