                               Psi4 1.6 release

  ==> Input File <==

--------------------------------------------------------------------------
molecule {
0 1
 C    2.194857    0.477263    0.602989
 N    1.061891   -0.163655    0.973485
 C   -0.125882   -0.082804    0.201235
 C   -0.058174   -0.059455   -1.188764
 C    1.064988   -1.019045    2.139690
 C   -1.370447   -0.001046    0.819298
 C   -2.521880    0.091867    0.059166
 C   -2.450925    0.110507   -1.322788
 C   -1.214741    0.037733   -1.940607
 H   -1.453690    0.008507    1.895103
 H    0.898847   -0.115299   -1.679404
 O    2.366887    1.140294   -0.388317
 H    0.987192   -2.066821    1.835390
 H    0.229343   -0.795547    2.801152
 H    1.993132   -0.881381    2.690956
 H   -3.479842    0.156654    0.553977
 H   -1.146229    0.052684   -3.018022
 H   -3.352382    0.184352   -1.912099
 H    3.000735    0.323976    1.348146
}
memory 20GB
set_num_threads(5)
psi4_io.set_default_path("/scratch/liuchw/Psi4-3_24_Index_0-farH_in17")
set freeze_core True
E, wfn = energy('wb97x-d/6-311+G*',return_wfn=True)
oeprop(wfn,"WIBERG_LOWDIN_INDICES")
clean()
--------------------------------------------------------------------------

    Molecular point group: c1

    Geometry (in Angstrom), charge = 0, multiplicity = 1:

       Center              X                  Y                   Z               Mass
    ------------   -----------------  -----------------  -----------------  -----------------
         C            2.220026652068     0.422105157902     0.570310421147    12.000000000000
         N            1.087060652068    -0.218812842098     0.940806421147    14.003074004430
         C           -0.100712347932    -0.137961842098     0.168556421147    12.000000000000
         C           -0.033004347932    -0.114612842098    -1.221442578853    12.000000000000
         C            1.090157652068    -1.074202842098     2.107011421147    12.000000000000
         C           -1.345277347932    -0.056203842098     0.786619421147    12.000000000000
         C           -2.496710347932     0.036709157902     0.026487421147    12.000000000000
         C           -2.425755347932     0.055349157902    -1.355466578853    12.000000000000
         C           -1.189571347932    -0.017424842098    -1.973285578853    12.000000000000
         H           -1.428520347932    -0.046650842098     1.862424421147     1.007825032230
         H            0.924016652068    -0.170456842098    -1.712082578853     1.007825032230
         O            2.392056652068     1.085136157902    -0.420995578853    15.994914619570
         H            1.012361652068    -2.121978842098     1.802711421147     1.007825032230
         H            0.254512652068    -0.850704842098     2.768473421147     1.007825032230
         H            2.018301652068    -0.936538842098     2.658277421147     1.007825032230
         H           -3.454672347932     0.101496157902     0.521298421147     1.007825032230
         H           -1.121059347932    -0.002473842098    -3.050700578853     1.007825032230
         H           -3.327212347932     0.129194157902    -1.944777578853     1.007825032230
         H            3.025904652068     0.268818157902     1.315467421147     1.007825032230

  Charge       = 0
  Multiplicity = 1
  Basis Set: 6-311+G*
    Blend: 6-311+G*
  Basis Set: (6-311+G* AUX)
    Blend: HEAVY-AUG-CC-PVTZ-JKFIT

    Orbital Energies [Eh]
    ---------------------

    Doubly Occupied:

       1A    -19.220814     2A    -14.483776     3A    -10.389008
       4A    -10.337449     5A    -10.333557     6A    -10.296186
       7A    -10.293565     8A    -10.290467     9A    -10.288986
      10A    -10.287911    11A     -1.157106    12A     -1.069952
      13A     -0.966870    14A     -0.865542    15A     -0.860017
      16A     -0.822054    17A     -0.751664    18A     -0.712910
      19A     -0.673105    20A     -0.617466    21A     -0.608300
      22A     -0.576659    23A     -0.575126    24A     -0.545025
      25A     -0.537354    26A     -0.516091    27A     -0.508859
      28A     -0.500689    29A     -0.488626    30A     -0.466927
      31A     -0.450300    32A     -0.438841    33A     -0.376683
      34A     -0.353019    35A     -0.334963    36A     -0.309011

  @DF-RKS Final Energy:  -440.19803844007293

   => Energetics <=

    Nuclear Repulsion Energy =            499.5663005846698184
    One-Electron Energy =               -1585.7499659708266790
    Two-Electron Energy =                 688.9475010503028898
    DFT Exchange-Correlation Energy =     -42.9519345887797144
    Empirical Dispersion Energy =          -0.0099395154391366
    VV10 Nonlocal Energy =                  0.0000000000000000
    Total Energy =                       -440.1980384400728781
 Dipole X            :          1.3842398           -1.9569438           -0.5727040
 Dipole Y            :          2.4669638           -3.3965042           -0.9295404
 Dipole Z            :         -2.9149168            3.9523893            1.0374725
 Magnitude           :                                                    1.5061157
*** Psi4 exiting successfully. Buy a developer a beer!
