                               Psi4 1.6 release

  ==> Input File <==

--------------------------------------------------------------------------
molecule {
0 1
 C    2.182616    0.498429    0.638982
 N    1.063328   -0.200350    0.945993
 C   -0.114753   -0.115304    0.169400
 C   -0.039175   -0.003503   -1.215820
 C    1.041690   -0.957178    2.182175
 C   -1.364513   -0.118062    0.784313
 C   -2.515322   -0.034105    0.022080
 C   -2.437476    0.066760   -1.355979
 C   -1.195954    0.086876   -1.967876
 H   -1.446457   -0.166497    1.859574
 H    0.922243    0.012746   -1.700610
 O    2.351733    1.229031   -0.304016
 H    0.193018   -1.635830    2.183023
 H    0.991807   -0.301376    3.055623
 H    1.954781   -1.550929    2.258514
 H   -3.477835   -0.038652    0.512264
 H   -1.123675    0.170671   -3.041851
 H   -3.338137    0.134798   -1.947193
 H    2.975760    0.321258    1.391990
}
memory 20GB
set_num_threads(5)
psi4_io.set_default_path("/scratch/liuchw/Psi4-3_24_Index_0-farH_in17")
set freeze_core True
E, wfn = energy('wb97x-d/6-311+G*',return_wfn=True)
oeprop(wfn,"WIBERG_LOWDIN_INDICES")
clean()
--------------------------------------------------------------------------

    Molecular point group: c1

    Geometry (in Angstrom), charge = 0, multiplicity = 1:

       Center              X                  Y                   Z               Mass
    ------------   -----------------  -----------------  -----------------  -----------------
         C            2.206129171874     0.447625272728     0.608786155232    12.000000000000
         N            1.086841171874    -0.251153727272     0.915797155232    14.003074004430
         C           -0.091239828126    -0.166107727272     0.139204155232    12.000000000000
         C           -0.015661828126    -0.054306727272    -1.246015844768    12.000000000000
         C            1.065203171874    -1.007981727272     2.151979155232    12.000000000000
         C           -1.340999828126    -0.168865727272     0.754117155232    12.000000000000
         C           -2.491808828126    -0.084908727272    -0.008115844768    12.000000000000
         C           -2.413962828126     0.015956272728    -1.386174844768    12.000000000000
         C           -1.172440828126     0.036072272728    -1.998071844768    12.000000000000
         H           -1.422943828126    -0.217300727272     1.829378155232     1.007825032230
         H            0.945756171874    -0.038057727272    -1.730805844768     1.007825032230
         O            2.375246171874     1.178227272728    -0.334211844768    15.994914619570
         H            0.216531171874    -1.686633727272     2.152827155232     1.007825032230
         H            1.015320171874    -0.352179727272     3.025427155232     1.007825032230
         H            1.978294171874    -1.601732727272     2.228318155232     1.007825032230
         H           -3.454321828126    -0.089455727272     0.482068155232     1.007825032230
         H           -1.100161828126     0.119867272728    -3.072046844768     1.007825032230
         H           -3.314623828126     0.083994272728    -1.977388844768     1.007825032230
         H            2.999273171874     0.270454272728     1.361794155232     1.007825032230

  Charge       = 0
  Multiplicity = 1
  Basis Set: 6-311+G*
    Blend: 6-311+G*
  Basis Set: (6-311+G* AUX)
    Blend: HEAVY-AUG-CC-PVTZ-JKFIT

    Orbital Energies [Eh]
    ---------------------

    Doubly Occupied:

       1A    -19.223233     2A    -14.483225     3A    -10.389965
       4A    -10.337394     5A    -10.333750     6A    -10.294814
       7A    -10.292940     8A    -10.289810     9A    -10.287443
      10A    -10.286785    11A     -1.158440    12A     -1.070936
      13A     -0.966026    14A     -0.865552    15A     -0.859554
      16A     -0.821761    17A     -0.751825    18A     -0.711880
      19A     -0.671995    20A     -0.616550    21A     -0.608966
      22A     -0.576773    23A     -0.574897    24A     -0.546042
      25A     -0.536566    26A     -0.516304    27A     -0.509344
      28A     -0.501434    29A     -0.488456    30A     -0.466306
      31A     -0.450717    32A     -0.437561    33A     -0.380091
      34A     -0.353412    35A     -0.335064    36A     -0.305990

  @DF-RKS Final Energy:  -440.19785158978067

   => Energetics <=

    Nuclear Repulsion Energy =            499.5166267403496363
    One-Electron Energy =               -1585.6559116723162788
    Two-Electron Energy =                 688.9038195546967245
    DFT Exchange-Correlation Energy =     -42.9523067462518213
    Empirical Dispersion Energy =          -0.0100794662590342
    VV10 Nonlocal Energy =                  0.0000000000000000
    Total Energy =                       -440.1978515897806687
 Dipole X            :          1.4572019           -1.9950002           -0.5377982
 Dipole Y            :          2.3266849           -3.2851063           -0.9584213
 Dipole Z            :         -2.9934778            4.0264511            1.0329734
 Magnitude           :                                                    1.5082547
*** Psi4 exiting successfully. Buy a developer a beer!
