   * xtb version 6.5.0 (97a52f5) compiled by 'conda@d2599ee0d4f4' on 2022-05-15
          program call               : /home/liuchw/anaconda3/envs/xtbenv/bin/xtb --gfn 2 --chrg 0 --uhf 0 3_24_Index_0-opt-2-3-007_preQMOPTprefit_xyzformat.xyz --opt --input xtb-opt-2-3-007_constr.txt

   ID    Z sym.   atoms
    1    6 C      1, 3-9
    2    7 N      2
    3    1 H      10, 11, 13-19
    4    8 O      12
constraining angle 1 2 3 4 to    7.0869029°, actual value:    7.0869029°
constraining angle 1 2 5 14 to  221.0169689°, actual value: -138.9830311°
constraining angle 12 1 2 3 to  358.0017511°, actual value:   -1.9982489°

          :  Hamiltonian                  GFN2-xTB          :
 * total energy  :   -28.6866709 Eh     change       -0.3007656E-09 Eh
 * total energy  :   -28.6971525 Eh     change       -0.1048157E-01 Eh
 * total energy  :   -28.6986232 Eh     change       -0.1470789E-02 Eh
 * total energy  :   -28.6980238 Eh     change        0.5994303E-03 Eh
 * total energy  :   -28.6988590 Eh     change       -0.8351466E-03 Eh
 * total energy  :   -28.6989029 Eh     change       -0.4399147E-04 Eh
 * total energy  :   -28.6989511 Eh     change       -0.4815186E-04 Eh
 * total energy  :   -28.6989867 Eh     change       -0.3557318E-04 Eh
 * total energy  :   -28.6989982 Eh     change       -0.1150790E-04 Eh
 * total energy  :   -28.6990083 Eh     change       -0.1010425E-04 Eh
 * total energy  :   -28.6990114 Eh     change       -0.3107856E-05 Eh
   *** GEOMETRY OPTIMIZATION CONVERGED AFTER 11 ITERATIONS ***

 final structure:
================
19
 xtb: 6.5.0 (97a52f5)
C            2.33467225151290       -0.04300647915457        0.38761913867440
N            1.09614342451155       -0.29693856531381        0.88100880361163
C           -0.10465211358504       -0.13798542289038        0.15152048514384
C           -0.09456347118882        0.16314224147779       -1.21096180659164
C            1.00720645467713       -0.72956755525022        2.26173064140105
C           -1.33966186708529       -0.22095362507589        0.79733271499276
C           -2.51839200862327       -0.05584128125628        0.09208805556449
C           -2.49932278853224        0.21179298441836       -1.26415693377031
C           -1.27854853205081        0.32598599091757       -1.90528238829098
H           -1.41016051163535       -0.40015421390439        1.85742634712947
H            0.84060304827092        0.25911433014545       -1.73353386167800
O            2.64709764565097        0.31637866728265       -0.71958282067600
H            1.97373232497832       -1.10566873444803        2.59101449501306
H            0.27011137356488       -1.52539357838353        2.36158207095893
H            0.71500957973547        0.09950301190940        2.91322026917808
H           -3.45945853826628       -0.13151798621583        0.61719417946579
H           -1.24034606301398        0.54913827445795       -2.96109091809454
H           -3.42174635653347        0.33804130151878       -1.81027009384862
H            3.10595814761238       -0.21728334023502        1.16372663181660

          :  Hamiltonian                  GFN2-xTB          :
         :: total energy             -28.699011394923 Eh    ::
         :: gradient norm              0.000846749156 Eh/a0 ::
         :: HOMO-LUMO gap              3.853877156297 eV    ::
         :: SCC energy               -29.147716628998 Eh    ::
         :: -> dispersion             -0.015892300724 Eh    ::
         :: repulsion energy           0.448655864001 Eh    ::

    * Orbital Energies and Occupations

         #    Occupation            Energy/Eh            Energy/eV
      -------------------------------------------------------------
         1        2.0000           -0.7054823             -19.1972
       ...           ...                  ...                  ...
        14        2.0000           -0.5141557             -13.9909
        15        2.0000           -0.5129854             -13.9590
        16        2.0000           -0.4996036             -13.5949
        17        2.0000           -0.4913319             -13.3698
        18        2.0000           -0.4856986             -13.2165
        19        2.0000           -0.4819984             -13.1158
        20        2.0000           -0.4764878             -12.9659
        21        2.0000           -0.4421651             -12.0319
        22        2.0000           -0.4406871             -11.9917
        23        2.0000           -0.4281181             -11.6497
        24        2.0000           -0.4068925             -11.0721
        25        2.0000           -0.3943713             -10.7314
        26        2.0000           -0.3840882             -10.4516 (HOMO)
        27                         -0.2424608              -6.5977 (LUMO)
        28                         -0.2250722              -6.1245
        29                         -0.1963076              -5.3418
        30                         -0.0898283              -2.4444
        31                         -0.0118113              -0.3214
        32                          0.0637832               1.7356
        33                          0.1073053               2.9199
        34                          0.1361557               3.7050
        35                          0.1451458               3.9496
        36                          0.1610003               4.3810
        37                          0.1802004               4.9035
       ...                                ...                  ...
        49                          0.6703543              18.2413
      -------------------------------------------------------------
                  HL-Gap            0.1416274 Eh            3.8539 eV

     #   Z          covCN         q      C6AA      α(0)
     1   6 C        2.713     0.247    22.850     7.825
     2   7 N        2.733    -0.070    22.600     7.061
     3   6 C        2.912     0.067    26.502     8.442
     4   6 C        2.923    -0.048    29.198     8.861
     5   6 C        3.706    -0.051    21.645     6.651
     6   6 C        2.923    -0.054    29.337     8.882
     7   6 C        2.921    -0.030    28.756     8.794
     8   6 C        2.917    -0.035    28.879     8.812
     9   6 C        2.921    -0.028    28.689     8.784
    10   1 H        0.926     0.034     2.535     2.490
    11   1 H        0.926     0.079     1.989     2.205
    12   8 O        0.856    -0.397    21.625     6.235
    13   1 H        0.925     0.059     2.210     2.325
    14   1 H        0.925     0.066     2.128     2.281
    15   1 H        0.924     0.056     2.243     2.342
    16   1 H        0.926     0.032     2.560     2.502
    17   1 H        0.926     0.038     2.476     2.461
    18   1 H        0.926     0.033     2.547     2.496
    19   1 H        0.922     0.003     3.011     2.714

Wiberg/Mayer (AO) data.
largest (>0.10) Wiberg bond orders for each atom

     #   Z sym  total        # sym  WBO       # sym  WBO       # sym  WBO
 ---------------------------------------------------------------------------
     1   6 C    3.954 --    12 O    1.733     2 N    1.232    19 H    0.917
     2   7 N    3.558 --     1 C    1.232     3 C    1.048     5 C    1.000
                            12 O    0.184
     3   6 C    3.958 --     6 C    1.374     4 C    1.373     2 N    1.048
     4   6 C    3.986 --     9 C    1.454     3 C    1.373    11 H    0.957
                             7 C    0.109
     5   6 C    3.969 --     2 N    1.000    13 H    0.976    15 H    0.975
                            14 H    0.975
     6   6 C    3.990 --     7 C    1.449     3 C    1.374    10 H    0.965
                             9 C    0.107
     7   6 C    3.992 --     6 C    1.449     8 C    1.436    16 H    0.971
                             4 C    0.109
     8   6 C    3.993 --     7 C    1.436     9 C    1.432    18 H    0.971
     9   6 C    3.992 --     4 C    1.454     8 C    1.432    17 H    0.971
                             6 C    0.107
    10   1 H    0.999 --     6 C    0.965
    11   1 H    0.994 --     4 C    0.957
    12   8 O    2.052 --     1 C    1.733     2 N    0.184
    13   1 H    0.996 --     5 C    0.976
    14   1 H    0.996 --     5 C    0.975
    15   1 H    0.997 --     5 C    0.975
    16   1 H    0.998 --     7 C    0.971
    17   1 H    0.998 --     9 C    0.971
    18   1 H    0.998 --     8 C    0.971
    19   1 H    0.999 --     1 C    0.917
 ---------------------------------------------------------------------------

molecular dipole:
                 x           y           z       tot (Debye)
 q only:       -0.757      -0.424       1.084
   full:       -0.758      -0.487       1.365       4.156

           -------------------------------------------------
          | TOTAL ENERGY              -28.699011394923 Eh   |
          | GRADIENT NORM               0.000846749156 Eh/α |
          | HOMO-LUMO GAP               3.853877156297 eV   |
           -------------------------------------------------

 * finished run on 2023/11/18 at 08:19:52.060
