                               Psi4 1.6 release

  ==> Input File <==

--------------------------------------------------------------------------
molecule {
0 1
 C    2.246427    0.254784    0.470541
 N    1.077559   -0.264573    0.914539
 C   -0.131884   -0.108825    0.192157
 C   -0.129583   -0.148927   -1.198732
 C    1.089523   -1.058774    2.126974
 C   -1.326252    0.147746    0.860695
 C   -2.498553    0.326634    0.150082
 C   -2.495403    0.269742   -1.232959
 C   -1.306198    0.037483   -1.901425
 H   -1.347640    0.231504    1.937183
 H    0.791007   -0.328453   -1.728074
 O    2.434316    0.859195   -0.554985
 H    1.740049   -0.603978    2.873729
 H    1.448548   -2.070306    1.913431
 H    0.087475   -1.138962    2.537429
 H   -3.417338    0.523537    0.682806
 H   -1.290264   -0.000698   -2.980312
 H   -3.412406    0.413275   -1.784172
 H    3.064298    0.058385    1.191681
}
memory 20GB
set_num_threads(5)
psi4_io.set_default_path("/scratch/liuchw/Psi4-3_24_Index_0-farH_in17")
set freeze_core True
E, wfn = energy('wb97x-d/6-311+G*',return_wfn=True)
oeprop(wfn,"WIBERG_LOWDIN_INDICES")
clean()
--------------------------------------------------------------------------

    Molecular point group: c1

    Geometry (in Angstrom), charge = 0, multiplicity = 1:

       Center              X                  Y                   Z               Mass
    ------------   -----------------  -----------------  -----------------  -----------------
         C            2.268281209375     0.227110913121     0.454123736685    12.000000000000
         N            1.099413209375    -0.292246086879     0.898121736685    14.003074004430
         C           -0.110029790625    -0.136498086879     0.175739736685    12.000000000000
         C           -0.107728790625    -0.176600086879    -1.215149263315    12.000000000000
         C            1.111377209375    -1.086447086879     2.110556736685    12.000000000000
         C           -1.304397790625     0.120072913121     0.844277736685    12.000000000000
         C           -2.476698790625     0.298960913121     0.133664736685    12.000000000000
         C           -2.473548790625     0.242068913121    -1.249376263315    12.000000000000
         C           -1.284343790625     0.009809913121    -1.917842263315    12.000000000000
         H           -1.325785790625     0.203830913121     1.920765736685     1.007825032230
         H            0.812861209375    -0.356126086879    -1.744491263315     1.007825032230
         O            2.456170209375     0.831521913121    -0.571402263315    15.994914619570
         H            1.761903209375    -0.631651086879     2.857311736685     1.007825032230
         H            1.470402209375    -2.097979086879     1.897013736685     1.007825032230
         H            0.109329209375    -1.166635086879     2.521011736685     1.007825032230
         H           -3.395483790625     0.495863913121     0.666388736685     1.007825032230
         H           -1.268409790625    -0.028371086879    -2.996729263315     1.007825032230
         H           -3.390551790625     0.385601913121    -1.800589263315     1.007825032230
         H            3.086152209375     0.030711913121     1.175263736685     1.007825032230

  Charge       = 0
  Multiplicity = 1
  Basis Set: 6-311+G*
    Blend: 6-311+G*
  Basis Set: (6-311+G* AUX)
    Blend: HEAVY-AUG-CC-PVTZ-JKFIT

    Orbital Energies [Eh]
    ---------------------

    Doubly Occupied:

       1A    -19.221394     2A    -14.482069     3A    -10.388508
       4A    -10.337353     5A    -10.332993     6A    -10.295804
       7A    -10.293368     8A    -10.290185     9A    -10.288483
      10A    -10.287562    11A     -1.156884    12A     -1.069138
      13A     -0.966554    14A     -0.865595    15A     -0.859733
      16A     -0.821019    17A     -0.751076    18A     -0.712759
      19A     -0.672373    20A     -0.616432    21A     -0.608424
      22A     -0.575946    23A     -0.574840    24A     -0.545880
      25A     -0.537109    26A     -0.516431    27A     -0.508584
      28A     -0.500682    29A     -0.487458    30A     -0.466428
      31A     -0.450345    32A     -0.438472    33A     -0.377480
      34A     -0.352666    35A     -0.334873    36A     -0.307224

  @DF-RKS Final Energy:  -440.19641833892990

   => Energetics <=

    Nuclear Repulsion Energy =            499.3367808885259933
    One-Electron Energy =               -1585.3131225907432054
    Two-Electron Energy =                 688.7418239941140428
    DFT Exchange-Correlation Energy =     -42.9519490647722790
    Empirical Dispersion Energy =          -0.0099515660543254
    VV10 Nonlocal Energy =                  0.0000000000000000
    Total Energy =                       -440.1964183389298455
 Dipole X            :          1.3934715           -1.9971853           -0.6037138
 Dipole Y            :          2.1443777           -2.9620158           -0.8176381
 Dipole Z            :         -3.0919015            4.2094576            1.1175561
 Magnitude           :                                                    1.5106072
*** Psi4 exiting successfully. Buy a developer a beer!
