                               Psi4 1.6 release

  ==> Input File <==

--------------------------------------------------------------------------
molecule {
0 1
 C    2.267233    0.271265    0.495359
 N    1.094152   -0.272222    0.898206
 C   -0.107398   -0.094926    0.172023
 C   -0.092686   -0.073017   -1.219903
 C    1.026775   -0.978541    2.158843
 C   -1.322619    0.029546    0.839960
 C   -2.496856    0.184797    0.125533
 C   -2.478026    0.215729   -1.257688
 C   -1.271494    0.087580   -1.924181
 H   -1.362006    0.018461    1.917864
 H    0.840883   -0.172208   -1.747292
 O    2.465857    0.920433   -0.499955
 H    2.030830   -1.279658    2.455298
 H    0.415346   -1.874262    2.044844
 H    0.608618   -0.355196    2.953237
 H   -3.431617    0.283949    0.657655
 H   -1.245036    0.104889   -3.003400
 H   -3.396869    0.337354   -1.811149
 H    3.078595    0.044814    1.215331
}
memory 20GB
set_num_threads(5)
psi4_io.set_default_path("/scratch/liuchw/Psi4-3_24_Index_0-farH_in17")
set freeze_core True
E, wfn = energy('wb97x-d/6-311+G*',return_wfn=True)
oeprop(wfn,"WIBERG_LOWDIN_INDICES")
clean()
--------------------------------------------------------------------------

    Molecular point group: c1

    Geometry (in Angstrom), charge = 0, multiplicity = 1:

       Center              X                  Y                   Z               Mass
    ------------   -----------------  -----------------  -----------------  -----------------
         C            2.277736594136     0.243834363519     0.480705038128    12.000000000000
         N            1.104655594136    -0.299652636481     0.883552038128    14.003074004430
         C           -0.096894405864    -0.122356636481     0.157369038128    12.000000000000
         C           -0.082182405864    -0.100447636481    -1.234556961872    12.000000000000
         C            1.037278594136    -1.005971636481     2.144189038128    12.000000000000
         C           -1.312115405864     0.002115363519     0.825306038128    12.000000000000
         C           -2.486352405864     0.157366363519     0.110879038128    12.000000000000
         C           -2.467522405864     0.188298363519    -1.272341961872    12.000000000000
         C           -1.260990405864     0.060149363519    -1.938834961872    12.000000000000
         H           -1.351502405864    -0.008969636481     1.903210038128     1.007825032230
         H            0.851386594136    -0.199638636481    -1.761945961872     1.007825032230
         O            2.476360594136     0.893002363519    -0.514608961872    15.994914619570
         H            2.041333594136    -1.307088636481     2.440644038128     1.007825032230
         H            0.425849594136    -1.901692636481     2.030190038128     1.007825032230
         H            0.619121594136    -0.382626636481     2.938583038128     1.007825032230
         H           -3.421113405864     0.256518363519     0.643001038128     1.007825032230
         H           -1.234532405864     0.077458363519    -3.018053961872     1.007825032230
         H           -3.386365405864     0.309923363519    -1.825802961872     1.007825032230
         H            3.089098594136     0.017383363519     1.200677038128     1.007825032230

  Charge       = 0
  Multiplicity = 1
  Basis Set: 6-311+G*
    Blend: 6-311+G*
  Basis Set: (6-311+G* AUX)
    Blend: HEAVY-AUG-CC-PVTZ-JKFIT

    Orbital Energies [Eh]
    ---------------------

    Doubly Occupied:

       1A    -19.222485     2A    -14.484861     3A    -10.390300
       4A    -10.337531     5A    -10.334277     6A    -10.295261
       7A    -10.293215     8A    -10.290107     9A    -10.288031
      10A    -10.287160    11A     -1.158455    12A     -1.071685
      13A     -0.966364    14A     -0.865497    15A     -0.859916
      16A     -0.822804    17A     -0.752414    18A     -0.712025
      19A     -0.672689    20A     -0.617593    21A     -0.608804
      22A     -0.577640    23A     -0.575280    24A     -0.544960
      25A     -0.537270    26A     -0.516009    27A     -0.509501
      28A     -0.500565    29A     -0.489900    30A     -0.466792
      31A     -0.450733    32A     -0.437942    33A     -0.379580
      34A     -0.353505    35A     -0.335287    36A     -0.307722

  @DF-RKS Final Energy:  -440.19957022006707

   => Energetics <=

    Nuclear Repulsion Energy =            499.6729544044740123
    One-Electron Energy =               -1585.9473126423804388
    Two-Electron Energy =                 689.0371845530501105
    DFT Exchange-Correlation Energy =     -42.9523103128424140
    Empirical Dispersion Energy =          -0.0100862223683308
    VV10 Nonlocal Energy =                  0.0000000000000000
    Total Energy =                       -440.1995702200670735
 Dipole X            :          1.6161792           -2.2100408           -0.5938616
 Dipole Y            :          2.0901309           -2.9373049           -0.8471740
 Dipole Z            :         -3.1603713            4.2609181            1.1005468
 Magnitude           :                                                    1.5104895
*** Psi4 exiting successfully. Buy a developer a beer!
