   * xtb version 6.5.0 (97a52f5) compiled by 'conda@d2599ee0d4f4' on 2022-05-15
          program call               : /home/liuchw/anaconda3/envs/xtbenv/bin/xtb --gfn 2 --chrg 0 --uhf 0 3_24_Index_0-opt-2-3-157_preQMOPTprefit_xyzformat.xyz --opt --input xtb-opt-2-3-157_constr.txt

   ID    Z sym.   atoms
    1    6 C      1, 3-9
    2    7 N      2
    3    1 H      10, 11, 13-19
    4    8 O      12
constraining angle 1 2 3 4 to  156.8818947°, actual value:  156.8818947°
constraining angle 1 2 5 14 to  221.0126874°, actual value: -138.9873126°
constraining angle 12 1 2 3 to  357.9872658°, actual value:   -2.0127342°

          :  Hamiltonian                  GFN2-xTB          :
 * total energy  :   -28.6867600 Eh     change       -0.1465565E-09 Eh
 * total energy  :   -28.6961069 Eh     change       -0.9346903E-02 Eh
 * total energy  :   -28.6970294 Eh     change       -0.9224669E-03 Eh
 * total energy  :   -28.6971269 Eh     change       -0.9747469E-04 Eh
 * total energy  :   -28.6975990 Eh     change       -0.4721615E-03 Eh
 * total energy  :   -28.6976927 Eh     change       -0.9370267E-04 Eh
 * total energy  :   -28.6977588 Eh     change       -0.6606208E-04 Eh
 * total energy  :   -28.6978201 Eh     change       -0.6132327E-04 Eh
 * total energy  :   -28.6978550 Eh     change       -0.3485520E-04 Eh
 * total energy  :   -28.6978787 Eh     change       -0.2369017E-04 Eh
 * total energy  :   -28.6978861 Eh     change       -0.7454850E-05 Eh
 * total energy  :   -28.6978897 Eh     change       -0.3569693E-05 Eh
 * total energy  :   -28.6978909 Eh     change       -0.1236156E-05 Eh
   *** GEOMETRY OPTIMIZATION CONVERGED AFTER 13 ITERATIONS ***

 final structure:
================
19
 xtb: 6.5.0 (97a52f5)
C            1.65704261266979        0.83964275328708        1.62461529971965
N            1.06015256143802       -0.18957405796940        0.97436541559027
C           -0.12999328389835       -0.03358538964511        0.21868198775177
C           -0.45555354597566       -0.93216271030931       -0.79583311824242
C            1.56740567382074       -1.52741642124356        1.20187300392596
C           -1.02144147696557        1.00086106679441        0.49971160910808
C           -2.18817723605052        1.14040827773867       -0.22871728333575
C           -2.49962988315405        0.25047119652921       -1.24131198527188
C           -1.62521357719633       -0.78455718193748       -1.51896352705609
H           -0.79987097381811        1.70333088577311        1.28419226761854
H            0.20397119832635       -1.74399853966758       -1.05763221180291
O            1.32459369080806        1.99784888640810        1.64491492112730
H            2.57001921065020       -1.47321568264787        1.62079752290441
H            1.60708717702773       -2.10108247696761        0.27917278252898
H            0.91952668940209       -2.06164976370660        1.90381011685650
H           -2.86234849880165        1.95003804414887        0.00726717188554
H           -1.85117190785454       -1.48959142422694       -2.30552412289983
H           -3.41271082460179        0.35987213052618       -1.80646645550394
H            2.55999742417352        0.49314740711590        2.16563361509593

          :  Hamiltonian                  GFN2-xTB          :
         :: total energy             -28.697890934163 Eh    ::
         :: gradient norm              0.000520535573 Eh/a0 ::
         :: HOMO-LUMO gap              3.910027275900 eV    ::
         :: SCC energy               -29.147201194282 Eh    ::
         :: -> dispersion             -0.015918483359 Eh    ::
         :: repulsion energy           0.449254340763 Eh    ::

    * Orbital Energies and Occupations

         #    Occupation            Energy/Eh            Energy/eV
      -------------------------------------------------------------
         1        2.0000           -0.7031382             -19.1334
       ...           ...                  ...                  ...
        14        2.0000           -0.5150824             -14.0161
        15        2.0000           -0.5082295             -13.8296
        16        2.0000           -0.4992543             -13.5854
        17        2.0000           -0.4943131             -13.4509
        18        2.0000           -0.4847737             -13.1914
        19        2.0000           -0.4837148             -13.1626
        20        2.0000           -0.4788065             -13.0290
        21        2.0000           -0.4422554             -12.0344
        22        2.0000           -0.4401387             -11.9768
        23        2.0000           -0.4262993             -11.6002
        24        2.0000           -0.4092381             -11.1359
        25        2.0000           -0.3962175             -10.7816
        26        2.0000           -0.3843980             -10.4600 (HOMO)
        27                         -0.2407071              -6.5500 (LUMO)
        28                         -0.2271051              -6.1798
        29                         -0.1999551              -5.4411
        30                         -0.0944500              -2.5701
        31                         -0.0099591              -0.2710
        32                          0.0689971               1.8775
        33                          0.0958697               2.6087
        34                          0.1349913               3.6733
        35                          0.1512027               4.1144
        36                          0.1575889               4.2882
        37                          0.1696916               4.6175
       ...                                ...                  ...
        49                          0.6701096              18.2346
      -------------------------------------------------------------
                  HL-Gap            0.1436909 Eh            3.9100 eV

     #   Z          covCN         q      C6AA      α(0)
     1   6 C        2.713     0.248    22.844     7.824
     2   7 N        2.733    -0.076    22.712     7.078
     3   6 C        2.914     0.069    26.461     8.435
     4   6 C        2.923    -0.048    29.202     8.862
     5   6 C        3.703    -0.050    21.630     6.650
     6   6 C        2.923    -0.042    29.032     8.836
     7   6 C        2.921    -0.027    28.674     8.781
     8   6 C        2.918    -0.034    28.847     8.808
     9   6 C        2.921    -0.030    28.741     8.791
    10   1 H        0.926     0.071     2.076     2.253
    11   1 H        0.926     0.032     2.553     2.499
    12   8 O        0.857    -0.400    21.679     6.243
    13   1 H        0.925     0.059     2.210     2.325
    14   1 H        0.925     0.065     2.147     2.291
    15   1 H        0.924     0.054     2.268     2.355
    16   1 H        0.926     0.039     2.457     2.451
    17   1 H        0.926     0.034     2.531     2.488
    18   1 H        0.926     0.035     2.521     2.483
    19   1 H        0.922     0.001     3.043     2.728

Wiberg/Mayer (AO) data.
largest (>0.10) Wiberg bond orders for each atom

     #   Z sym  total        # sym  WBO       # sym  WBO       # sym  WBO
 ---------------------------------------------------------------------------
     1   6 C    3.954 --    12 O    1.734     2 N    1.236    19 H    0.917
     2   7 N    3.544 --     1 C    1.236     3 C    1.032     5 C    0.998
                            12 O    0.190
     3   6 C    3.959 --     4 C    1.383     6 C    1.380     2 N    1.032
                             8 C    0.101
     4   6 C    3.991 --     9 C    1.449     3 C    1.383    11 H    0.962
                             7 C    0.108
     5   6 C    3.969 --     2 N    0.998    13 H    0.977    15 H    0.976
                            14 H    0.971
     6   6 C    3.988 --     7 C    1.451     3 C    1.380    10 H    0.962
                             9 C    0.109
     7   6 C    3.992 --     6 C    1.451     8 C    1.434    16 H    0.970
                             4 C    0.108
     8   6 C    3.993 --     9 C    1.435     7 C    1.434    18 H    0.971
                             3 C    0.101
     9   6 C    3.992 --     4 C    1.449     8 C    1.435    17 H    0.971
                             6 C    0.109
    10   1 H    0.995 --     6 C    0.962
    11   1 H    0.999 --     4 C    0.962
    12   8 O    2.046 --     1 C    1.734     2 N    0.190
    13   1 H    0.996 --     5 C    0.977
    14   1 H    0.996 --     5 C    0.971
    15   1 H    0.997 --     5 C    0.976
    16   1 H    0.998 --     7 C    0.970
    17   1 H    0.998 --     9 C    0.971
    18   1 H    0.998 --     8 C    0.971
    19   1 H    0.999 --     1 C    0.917
 ---------------------------------------------------------------------------

molecular dipole:
                 x           y           z       tot (Debye)
 q only:       -0.126      -1.409      -0.242
   full:        0.017      -1.647      -0.204       4.218

           -------------------------------------------------
          | TOTAL ENERGY              -28.697890934163 Eh   |
          | GRADIENT NORM               0.000520535573 Eh/α |
          | HOMO-LUMO GAP               3.910027275900 eV   |
           -------------------------------------------------

 * finished run on 2023/11/18 at 08:18:59.806
