   * xtb version 6.5.0 (97a52f5) compiled by 'conda@d2599ee0d4f4' on 2022-05-15
          program call               : /home/liuchw/anaconda3/envs/xtbenv/bin/xtb --gfn 2 --chrg 0 --uhf 0 3_24_Index_0-opt-2-5-071_preQMOPTprefit_xyzformat.xyz --opt --input xtb-opt-2-5-071_constr.txt

   ID    Z sym.   atoms
    1    6 C      1, 3-9
    2    7 N      2
    3    1 H      10, 11, 13-19
    4    8 O      12
constraining angle 1 2 5 14 to   71.0074331°, actual value:   71.0074331°
constraining angle 1 2 3 4 to   37.0890138°, actual value:   37.0890138°
constraining angle 12 1 2 3 to  357.9972830°, actual value:   -2.0027170°

          :  Hamiltonian                  GFN2-xTB          :
 * total energy  :   -28.6893772 Eh     change       -0.1101750E-08 Eh
 * total energy  :   -28.6977046 Eh     change       -0.8327473E-02 Eh
 * total energy  :   -28.6985775 Eh     change       -0.8728201E-03 Eh
 * total energy  :   -28.6980682 Eh     change        0.5092768E-03 Eh
 * total energy  :   -28.6992826 Eh     change       -0.1214437E-02 Eh
 * total energy  :   -28.6994451 Eh     change       -0.1625075E-03 Eh
 * total energy  :   -28.6995868 Eh     change       -0.1416855E-03 Eh
 * total energy  :   -28.6997162 Eh     change       -0.1293951E-03 Eh
 * total energy  :   -28.6997826 Eh     change       -0.6642459E-04 Eh
 * total energy  :   -28.6997918 Eh     change       -0.9189968E-05 Eh
 * total energy  :   -28.6997971 Eh     change       -0.5271295E-05 Eh
 * total energy  :   -28.6997979 Eh     change       -0.7574696E-06 Eh
   *** GEOMETRY OPTIMIZATION CONVERGED AFTER 12 ITERATIONS ***

 final structure:
================
19
 xtb: 6.5.0 (97a52f5)
C            2.18261609295219        0.49842947455852        0.63898242851218
N            1.06332800996912       -0.20034975890797        0.94599259838512
C           -0.11475304626764       -0.11530373081391        0.16939979241685
C           -0.03917525416360       -0.00350268182216       -1.21582045376605
C            1.04169008934611       -0.95717822337336        2.18217518549769
C           -1.36451257699777       -0.11806233488574        0.78431330630849
C           -2.51532179461644       -0.03410453309241        0.02207971857612
C           -2.43747559971590        0.06676034089949       -1.35597891831184
C           -1.19595444054104        0.08687584881054       -1.96787614426607
H           -1.44645747441388       -0.16649676980541        1.85957361416057
H            0.92224320179466        0.01274636751685       -1.70061013417294
O            2.35173317169035        1.22903081088055       -0.30401556595114
H            0.19301761301988       -1.63582988594414        2.18302308432960
H            0.99180708659046       -0.30137595139045        3.05562337998040
H            1.95478137491150       -1.55092865336129        2.25851375324255
H           -3.47783468089463       -0.03865219338204        0.51226364669695
H           -1.12367472573288        0.17067090015476       -3.04185108575558
H           -3.33813700205950        0.13479841942561       -1.94719318178019
H            2.97575995512909        0.32125755453264        1.39198997589736

          :  Hamiltonian                  GFN2-xTB          :
         :: total energy             -28.699797852610 Eh    ::
         :: gradient norm              0.000840325245 Eh/a0 ::
         :: HOMO-LUMO gap              3.949523228199 eV    ::
         :: SCC energy               -29.149543809523 Eh    ::
         :: -> dispersion             -0.015965424766 Eh    ::
         :: repulsion energy           0.449689452119 Eh    ::

    * Orbital Energies and Occupations

         #    Occupation            Energy/Eh            Energy/eV
      -------------------------------------------------------------
         1        2.0000           -0.7024346             -19.1142
       ...           ...                  ...                  ...
        14        2.0000           -0.5121746             -13.9370
        15        2.0000           -0.5089734             -13.8499
        16        2.0000           -0.4989420             -13.5769
        17        2.0000           -0.4952175             -13.4756
        18        2.0000           -0.4863937             -13.2354
        19        2.0000           -0.4828838             -13.1399
        20        2.0000           -0.4799122             -13.0591
        21        2.0000           -0.4410401             -12.0013
        22        2.0000           -0.4390463             -11.9471
        23        2.0000           -0.4255834             -11.5807
        24        2.0000           -0.4095998             -11.1458
        25        2.0000           -0.3975769             -10.8186
        26        2.0000           -0.3848548             -10.4724 (HOMO)
        27                         -0.2397125              -6.5229 (LUMO)
        28                         -0.2275034              -6.1907
        29                         -0.2011242              -5.4729
        30                         -0.0946851              -2.5765
        31                         -0.0084208              -0.2291
        32                          0.0790633               2.1514
        33                          0.1133018               3.0831
        34                          0.1337627               3.6399
        35                          0.1449870               3.9453
        36                          0.1545983               4.2068
        37                          0.1741004               4.7375
       ...                                ...                  ...
        49                          0.6708801              18.2556
      -------------------------------------------------------------
                  HL-Gap            0.1451423 Eh            3.9495 eV

     #   Z          covCN         q      C6AA      α(0)
     1   6 C        2.714     0.248    22.837     7.823
     2   7 N        2.735    -0.078    22.763     7.086
     3   6 C        2.919     0.069    26.457     8.435
     4   6 C        2.922    -0.037    28.919     8.819
     5   6 C        3.702    -0.050    21.629     6.650
     6   6 C        2.922    -0.049    29.229     8.866
     7   6 C        2.920    -0.029    28.734     8.790
     8   6 C        2.919    -0.034    28.841     8.807
     9   6 C        2.921    -0.026    28.661     8.779
    10   1 H        0.926     0.035     2.522     2.483
    11   1 H        0.926     0.062     2.170     2.304
    12   8 O        0.857    -0.399    21.661     6.240
    13   1 H        0.925     0.069     2.100     2.266
    14   1 H        0.924     0.053     2.280     2.361
    15   1 H        0.924     0.056     2.242     2.341
    16   1 H        0.926     0.034     2.526     2.486
    17   1 H        0.926     0.040     2.453     2.449
    18   1 H        0.926     0.035     2.516     2.481
    19   1 H        0.922     0.002     3.027     2.721

Wiberg/Mayer (AO) data.
largest (>0.10) Wiberg bond orders for each atom

     #   Z sym  total        # sym  WBO       # sym  WBO       # sym  WBO
 ---------------------------------------------------------------------------
     1   6 C    3.954 --    12 O    1.738     2 N    1.233    19 H    0.920
     2   7 N    3.539 --     1 C    1.233     3 C    1.032     5 C    0.995
                            12 O    0.192
     3   6 C    3.960 --     4 C    1.382     6 C    1.382     2 N    1.032
                             8 C    0.101
     4   6 C    3.989 --     9 C    1.449     3 C    1.382    11 H    0.965
                             7 C    0.109
     5   6 C    3.970 --     2 N    0.995    13 H    0.979    15 H    0.978
                            14 H    0.977
     6   6 C    3.990 --     7 C    1.449     3 C    1.382    10 H    0.967
                             9 C    0.108
     7   6 C    3.992 --     6 C    1.449     8 C    1.435    16 H    0.971
                             4 C    0.109
     8   6 C    3.992 --     9 C    1.435     7 C    1.435    18 H    0.971
                             3 C    0.101
     9   6 C    3.992 --     4 C    1.449     8 C    1.435    17 H    0.970
                             6 C    0.108
    10   1 H    0.999 --     6 C    0.967
    11   1 H    0.996 --     4 C    0.965
    12   8 O    2.045 --     1 C    1.738     2 N    0.192
    13   1 H    0.995 --     5 C    0.979
    14   1 H    0.997 --     5 C    0.977
    15   1 H    0.996 --     5 C    0.978
    16   1 H    0.998 --     7 C    0.971
    17   1 H    0.998 --     9 C    0.970
    18   1 H    0.999 --     8 C    0.971
    19   1 H    0.999 --     1 C    0.920
 ---------------------------------------------------------------------------

molecular dipole:
                 x           y           z       tot (Debye)
 q only:       -0.709      -0.981       0.834
   full:       -0.665      -1.079       1.094       4.255

           -------------------------------------------------
          | TOTAL ENERGY              -28.699797852610 Eh   |
          | GRADIENT NORM               0.000840325245 Eh/α |
          | HOMO-LUMO GAP               3.949523228199 eV   |
           -------------------------------------------------

 * finished run on 2023/11/18 at 08:24:55.443
