                               Psi4 1.6 release

  ==> Input File <==

--------------------------------------------------------------------------
molecule {
0 1
 C    2.063063   -1.168562    0.404500
 N    1.068467   -0.433991    0.934818
 C   -0.127203   -0.210861    0.184289
 C   -0.175341    0.803947   -0.759424
 C    1.172336    0.236668    2.207740
 C   -1.241506   -1.003333    0.416993
 C   -2.403657   -0.780219   -0.299802
 C   -2.454210    0.231404   -1.244018
 C   -1.340028    1.020076   -1.474905
 H   -1.188732   -1.796395    1.148187
 H    0.702123    1.406630   -0.940234
 O    2.038146   -1.709939   -0.672706
 H    1.983712   -0.199403    2.788203
 H    0.236146    0.128663    2.757647
 H    1.367422    1.305290    2.071551
 H   -3.269985   -1.400223   -0.123398
 H   -1.376577    1.805451   -2.215043
 H   -3.361637    0.402019   -1.803692
 H    2.931146   -1.238439    1.089878
}
memory 20GB
set_num_threads(5)
psi4_io.set_default_path("/scratch/liuchw/Psi4-3_24_Index_0-farH_in17")
set freeze_core True
E, wfn = energy('wb97x-d/6-311+G*',return_wfn=True)
oeprop(wfn,"WIBERG_LOWDIN_INDICES")
clean()
--------------------------------------------------------------------------

    Molecular point group: c1

    Geometry (in Angstrom), charge = 0, multiplicity = 1:

       Center              X                  Y                   Z               Mass
    ------------   -----------------  -----------------  -----------------  -----------------
         C            2.126057783768    -0.846789753166     0.401794887505    12.000000000000
         N            1.131461783768    -0.112218753166     0.932112887505    14.003074004430
         C           -0.064208216232     0.110911246834     0.181583887505    12.000000000000
         C           -0.112346216232     1.125719246834    -0.762129112495    12.000000000000
         C            1.235330783768     0.558440246834     2.205034887505    12.000000000000
         C           -1.178511216232    -0.681560753166     0.414287887505    12.000000000000
         C           -2.340662216232    -0.458446753166    -0.302507112495    12.000000000000
         C           -2.391215216232     0.553176246834    -1.246723112495    12.000000000000
         C           -1.277033216232     1.341848246834    -1.477610112495    12.000000000000
         H           -1.125737216232    -1.474622753166     1.145481887505     1.007825032230
         H            0.765117783768     1.728402246834    -0.942939112495     1.007825032230
         O            2.101140783768    -1.388166753166    -0.675411112495    15.994914619570
         H            2.046706783768     0.122369246834     2.785497887505     1.007825032230
         H            0.299140783768     0.450435246834     2.754941887505     1.007825032230
         H            1.430416783768     1.627062246834     2.068845887505     1.007825032230
         H           -3.206990216232    -1.078450753166    -0.126103112495     1.007825032230
         H           -1.313582216232     2.127223246834    -2.217748112495     1.007825032230
         H           -3.298642216232     0.723791246834    -1.806397112495     1.007825032230
         H            2.994140783768    -0.916666753166     1.087172887505     1.007825032230

  Charge       = 0
  Multiplicity = 1
  Basis Set: 6-311+G*
    Blend: 6-311+G*
  Basis Set: (6-311+G* AUX)
    Blend: HEAVY-AUG-CC-PVTZ-JKFIT

    Orbital Energies [Eh]
    ---------------------

    Doubly Occupied:

       1A    -19.212386     2A    -14.473008     3A    -10.382082
       4A    -10.333545     5A    -10.330262     6A    -10.297191
       7A    -10.296801     8A    -10.296200     9A    -10.295852
      10A    -10.294923    11A     -1.149322    12A     -1.062341
      13A     -0.969605    14A     -0.864640    15A     -0.862628
      16A     -0.819427    17A     -0.747693    18A     -0.718706
      19A     -0.672030    20A     -0.614668    21A     -0.609708
      22A     -0.578724    23A     -0.571906    24A     -0.542043
      25A     -0.534696    26A     -0.521021    27A     -0.507731
      28A     -0.497765    29A     -0.478829    30A     -0.468383
      31A     -0.450923    32A     -0.442280    33A     -0.345012
      34A     -0.343724    35A     -0.341764    36A     -0.333812

  @DF-RKS Final Energy:  -440.19811814599825

   => Energetics <=

    Nuclear Repulsion Energy =            499.1024311283029533
    One-Electron Energy =               -1584.9117975526698956
    Two-Electron Energy =                 688.5675731647648945
    DFT Exchange-Correlation Energy =     -42.9460882741533680
    Empirical Dispersion Energy =          -0.0102366122427385
    VV10 Nonlocal Energy =                  0.0000000000000000
    Total Energy =                       -440.1981181459981940
 Dipole X            :          0.7484453           -1.3144870           -0.5660417
 Dipole Y            :         -2.1837293            3.0962516            0.9125222
 Dipole Z            :         -3.2718829            4.4458583            1.1739755
 Magnitude           :                                                    1.5910118
*** Psi4 exiting successfully. Buy a developer a beer!
