   * xtb version 6.5.0 (97a52f5) compiled by 'conda@d2599ee0d4f4' on 2022-05-15
          program call               : /home/liuchw/anaconda3/envs/xtbenv/bin/xtb --gfn 2 --chrg 0 --uhf 0 3_24_Index_0-opt-2-5-191_preQMOPTprefit_xyzformat.xyz --opt --input xtb-opt-2-5-191_constr.txt

   ID    Z sym.   atoms
    1    6 C      1, 3-9
    2    7 N      2
    3    1 H      10, 11, 13-19
    4    8 O      12
constraining angle 1 2 5 14 to  191.0084737°, actual value: -168.9915263°
constraining angle 1 2 3 4 to   37.0918984°, actual value:   37.0918984°
constraining angle 12 1 2 3 to  357.9970446°, actual value:   -2.0029554°

          :  Hamiltonian                  GFN2-xTB          :
 * total energy  :   -28.6892967 Eh     change       -0.2379252E-09 Eh
 * total energy  :   -28.6976331 Eh     change       -0.8336390E-02 Eh
 * total energy  :   -28.6985152 Eh     change       -0.8820623E-03 Eh
 * total energy  :   -28.6981641 Eh     change        0.3510569E-03 Eh
 * total energy  :   -28.6992146 Eh     change       -0.1050426E-02 Eh
 * total energy  :   -28.6993808 Eh     change       -0.1662330E-03 Eh
 * total energy  :   -28.6995159 Eh     change       -0.1351271E-03 Eh
 * total energy  :   -28.6996398 Eh     change       -0.1239052E-03 Eh
 * total energy  :   -28.6996983 Eh     change       -0.5850050E-04 Eh
 * total energy  :   -28.6997182 Eh     change       -0.1991240E-04 Eh
 * total energy  :   -28.6997265 Eh     change       -0.8214939E-05 Eh
 * total energy  :   -28.6997294 Eh     change       -0.2985471E-05 Eh
 * total energy  :   -28.6997306 Eh     change       -0.1158357E-05 Eh
   *** GEOMETRY OPTIMIZATION CONVERGED AFTER 13 ITERATIONS ***

 final structure:
================
19
 xtb: 6.5.0 (97a52f5)
C            2.23852458478131        0.32582658602581        0.52499331921142
N            1.08237247649724       -0.27052579250569        0.90298017522485
C           -0.11594451370992       -0.12417674971075        0.16739142152349
C           -0.08675010403009       -0.07373161776642       -1.22325455314380
C            1.05655994881524       -0.98099592244358        2.16648289337654
C           -1.33665674606959       -0.00062822101682        0.82664608217248
C           -2.50651220664164        0.14528949938298        0.10374217137811
C           -2.47552967838529        0.18451945168467       -1.27924785294928
C           -1.26149845085256        0.07990524416697       -1.93609120169040
H           -1.38000977752201        0.00210184422236        1.90527088078452
H            0.85301880949552       -0.15498866449199       -1.74278428426675
O            2.42521137957330        1.00305144132103       -0.45389068675173
H            1.90947362629454       -1.65788761624417        2.22668762438808
H            0.14017155464052       -1.56124766200643        2.23872655537051
H            1.09808751351334       -0.29042954289596        3.01380011754361
H           -3.44607891910443        0.23879337815584        0.62827626247389
H           -1.22533911350475        0.11486588834600       -3.01458046917577
H           -3.39064631963915        0.30201727588423       -1.83973019419302
H            3.04522793584848        0.11702717989199        1.25516672872309

          :  Hamiltonian                  GFN2-xTB          :
         :: total energy             -28.699730600754 Eh    ::
         :: gradient norm              0.000561857953 Eh/a0 ::
         :: HOMO-LUMO gap              3.951940911497 eV    ::
         :: SCC energy               -29.149489397767 Eh    ::
         :: -> dispersion             -0.015965820919 Eh    ::
         :: repulsion energy           0.449702062692 Eh    ::

    * Orbital Energies and Occupations

         #    Occupation            Energy/Eh            Energy/eV
      -------------------------------------------------------------
         1        2.0000           -0.7023226             -19.1112
       ...           ...                  ...                  ...
        14        2.0000           -0.5124965             -13.9457
        15        2.0000           -0.5086363             -13.8407
        16        2.0000           -0.4991266             -13.5819
        17        2.0000           -0.4951431             -13.4735
        18        2.0000           -0.4865868             -13.2407
        19        2.0000           -0.4828431             -13.1388
        20        2.0000           -0.4799356             -13.0597
        21        2.0000           -0.4410622             -12.0019
        22        2.0000           -0.4390523             -11.9472
        23        2.0000           -0.4256062             -11.5813
        24        2.0000           -0.4096834             -11.1481
        25        2.0000           -0.3974657             -10.8156
        26        2.0000           -0.3849128             -10.4740 (HOMO)
        27                         -0.2396816              -6.5221 (LUMO)
        28                         -0.2276010              -6.1933
        29                         -0.2011832              -5.4745
        30                         -0.0948676              -2.5815
        31                         -0.0088738              -0.2415
        32                          0.0801937               2.1822
        33                          0.1129720               3.0741
        34                          0.1341861               3.6514
        35                          0.1431006               3.8940
        36                          0.1557014               4.2368
        37                          0.1745917               4.7509
       ...                                ...                  ...
        49                          0.6708612              18.2551
      -------------------------------------------------------------
                  HL-Gap            0.1452312 Eh            3.9519 eV

     #   Z          covCN         q      C6AA      α(0)
     1   6 C        2.714     0.248    22.837     7.823
     2   7 N        2.734    -0.078    22.766     7.086
     3   6 C        2.919     0.069    26.457     8.435
     4   6 C        2.922    -0.037    28.916     8.818
     5   6 C        3.702    -0.050    21.633     6.651
     6   6 C        2.922    -0.049    29.227     8.866
     7   6 C        2.920    -0.029    28.734     8.790
     8   6 C        2.919    -0.034    28.840     8.806
     9   6 C        2.921    -0.026    28.660     8.779
    10   1 H        0.926     0.034     2.524     2.485
    11   1 H        0.926     0.062     2.170     2.304
    12   8 O        0.857    -0.399    21.666     6.241
    13   1 H        0.924     0.057     2.231     2.336
    14   1 H        0.925     0.069     2.102     2.267
    15   1 H        0.924     0.053     2.286     2.365
    16   1 H        0.926     0.034     2.525     2.485
    17   1 H        0.926     0.040     2.452     2.449
    18   1 H        0.926     0.035     2.515     2.480
    19   1 H        0.922     0.002     3.026     2.720

Wiberg/Mayer (AO) data.
largest (>0.10) Wiberg bond orders for each atom

     #   Z sym  total        # sym  WBO       # sym  WBO       # sym  WBO
 ---------------------------------------------------------------------------
     1   6 C    3.954 --    12 O    1.738     2 N    1.233    19 H    0.920
     2   7 N    3.539 --     1 C    1.233     3 C    1.031     5 C    0.995
                            12 O    0.192
     3   6 C    3.960 --     4 C    1.382     6 C    1.382     2 N    1.031
                             8 C    0.101
     4   6 C    3.989 --     9 C    1.449     3 C    1.382    11 H    0.965
                             7 C    0.109
     5   6 C    3.970 --     2 N    0.995    14 H    0.979    13 H    0.978
                            15 H    0.977
     6   6 C    3.990 --     7 C    1.449     3 C    1.382    10 H    0.967
                             9 C    0.108
     7   6 C    3.992 --     6 C    1.449     8 C    1.435    16 H    0.971
                             4 C    0.109
     8   6 C    3.992 --     7 C    1.435     9 C    1.435    18 H    0.971
                             3 C    0.101
     9   6 C    3.992 --     4 C    1.449     8 C    1.435    17 H    0.970
                             6 C    0.108
    10   1 H    0.999 --     6 C    0.967
    11   1 H    0.996 --     4 C    0.965
    12   8 O    2.044 --     1 C    1.738     2 N    0.192
    13   1 H    0.996 --     5 C    0.978
    14   1 H    0.995 --     5 C    0.979
    15   1 H    0.997 --     5 C    0.977
    16   1 H    0.998 --     7 C    0.971
    17   1 H    0.998 --     9 C    0.970
    18   1 H    0.999 --     8 C    0.971
    19   1 H    0.999 --     1 C    0.920
 ---------------------------------------------------------------------------

molecular dipole:
                 x           y           z       tot (Debye)
 q only:       -0.750      -0.890       0.898
   full:       -0.707      -0.980       1.160       4.258

           -------------------------------------------------
          | TOTAL ENERGY              -28.699730600754 Eh   |
          | GRADIENT NORM               0.000561857953 Eh/α |
          | HOMO-LUMO GAP               3.951940911497 eV   |
           -------------------------------------------------

 * finished run on 2023/11/18 at 08:23:29.000
