   * xtb version 6.5.0 (97a52f5) compiled by 'conda@d2599ee0d4f4' on 2022-05-15
          program call               : /home/liuchw/anaconda3/envs/xtbenv/bin/xtb --gfn 2 --chrg 0 --uhf 0 3_24_Index_0-opt-2-3-307_preQMOPTprefit_xyzformat.xyz --opt --input xtb-opt-2-3-307_constr.txt

   ID    Z sym.   atoms
    1    6 C      1, 3-9
    2    7 N      2
    3    1 H      10, 11, 13-19
    4    8 O      12
constraining angle 1 2 3 4 to  306.9393544°, actual value:  -53.0606456°
constraining angle 1 2 5 14 to  220.9914213°, actual value: -139.0085787°
constraining angle 12 1 2 3 to  358.0032312°, actual value:   -1.9967688°

          :  Hamiltonian                  GFN2-xTB          :
 * total energy  :   -28.6903536 Eh     change       -0.1945004E-09 Eh
 * total energy  :   -28.6977428 Eh     change       -0.7389139E-02 Eh
 * total energy  :   -28.6983795 Eh     change       -0.6367828E-03 Eh
 * total energy  :   -28.6981537 Eh     change        0.2258846E-03 Eh
 * total energy  :   -28.6988503 Eh     change       -0.6966967E-03 Eh
 * total energy  :   -28.6988887 Eh     change       -0.3839373E-04 Eh
 * total energy  :   -28.6989132 Eh     change       -0.2445875E-04 Eh
 * total energy  :   -28.6989357 Eh     change       -0.2245389E-04 Eh
 * total energy  :   -28.6989507 Eh     change       -0.1505231E-04 Eh
 * total energy  :   -28.6989547 Eh     change       -0.3954171E-05 Eh
   *** GEOMETRY OPTIMIZATION CONVERGED AFTER 10 ITERATIONS ***

 final structure:
================
19
 xtb: 6.5.0 (97a52f5)
C            2.18705753710282       -0.83180004226466        0.28818470342950
N            1.07319125859175       -0.40040469607177        0.91675977258010
C           -0.12571297743836       -0.18543778161465        0.18238819074823
C           -0.11017494707061        0.62706748307904       -0.94394200271141
C            1.07876571818441       -0.05685284409120        2.31959560569477
C           -1.31171021189618       -0.78831209414857        0.58341401174929
C           -2.47309975723697       -0.57150538637034       -0.13522635523390
C           -2.45825749840570        0.24012681155362       -1.25706489228960
C           -1.27462503881556        0.83298459847579       -1.66170915426503
H           -1.32480225715533       -1.43996209388927        1.44472144628506
H            0.81590492734205        1.08140985575732       -1.25869087947939
O            2.28452691335688       -1.10247008486940       -0.88230417817327
H            1.94640897223349       -0.50136738012328        2.80438236747750
H            0.17511861142684       -0.42121178925258        2.80616028633970
H            1.12066254276535        1.02968307078330        2.44682116172594
H           -3.39136722229766       -1.04582107908328        0.17824952891117
H           -1.25703068957223        1.46344550457196       -2.53801197186278
H           -3.36675618351749        0.40533151409333       -1.81655031974060
H            3.03558431240249       -0.93612055653539        0.99340867881482

          :  Hamiltonian                  GFN2-xTB          :
         :: total energy             -28.698954662658 Eh    ::
         :: gradient norm              0.000951629609 Eh/a0 ::
         :: HOMO-LUMO gap              4.133337381479 eV    ::
         :: SCC energy               -29.149521196990 Eh    ::
         :: -> dispersion             -0.016020319171 Eh    ::
         :: repulsion energy           0.450500224335 Eh    ::

    * Orbital Energies and Occupations

         #    Occupation            Energy/Eh            Energy/eV
      -------------------------------------------------------------
         1        2.0000           -0.6978064             -18.9883
       ...           ...                  ...                  ...
        14        2.0000           -0.5104912             -13.8912
        15        2.0000           -0.5054148             -13.7530
        16        2.0000           -0.5009404             -13.6313
        17        2.0000           -0.4941298             -13.4460
        18        2.0000           -0.4886974             -13.2981
        19        2.0000           -0.4849794             -13.1970
        20        2.0000           -0.4839592             -13.1692
        21        2.0000           -0.4424627             -12.0400
        22        2.0000           -0.4384981             -11.9321
        23        2.0000           -0.4217534             -11.4765
        24        2.0000           -0.4130160             -11.2387
        25        2.0000           -0.3962703             -10.7831
        26        2.0000           -0.3890321             -10.5861 (HOMO)
        27                         -0.2371347              -6.4528 (LUMO)
        28                         -0.2311703              -6.2905
        29                         -0.2043885              -5.5617
        30                         -0.1010960              -2.7510
        31                         -0.0043812              -0.1192
        32                          0.0791603               2.1541
        33                          0.1072520               2.9185
        34                          0.1307271               3.5573
        35                          0.1497777               4.0757
        36                          0.1610653               4.3828
        37                          0.1722608               4.6875
       ...                                ...                  ...
        49                          0.6690163              18.2049
      -------------------------------------------------------------
                  HL-Gap            0.1518974 Eh            4.1333 eV

     #   Z          covCN         q      C6AA      α(0)
     1   6 C        2.713     0.248    22.830     7.821
     2   7 N        2.735    -0.085    22.904     7.108
     3   6 C        2.926     0.072    26.384     8.424
     4   6 C        2.922    -0.031    28.773     8.796
     5   6 C        3.698    -0.047    21.589     6.646
     6   6 C        2.922    -0.041    29.030     8.836
     7   6 C        2.921    -0.028    28.701     8.785
     8   6 C        2.920    -0.031    28.769     8.796
     9   6 C        2.921    -0.025    28.634     8.775
    10   1 H        0.926     0.036     2.502     2.474
    11   1 H        0.926     0.052     2.291     2.367
    12   8 O        0.857    -0.408    21.833     6.265
    13   1 H        0.925     0.058     2.218     2.329
    14   1 H        0.925     0.062     2.176     2.307
    15   1 H        0.924     0.052     2.296     2.370
    16   1 H        0.926     0.038     2.479     2.462
    17   1 H        0.926     0.041     2.429     2.437
    18   1 H        0.926     0.038     2.475     2.460
    19   1 H        0.922    -0.002     3.092     2.750

Wiberg/Mayer (AO) data.
largest (>0.10) Wiberg bond orders for each atom

     #   Z sym  total        # sym  WBO       # sym  WBO       # sym  WBO
 ---------------------------------------------------------------------------
     1   6 C    3.955 --    12 O    1.729     2 N    1.247    19 H    0.917
     2   7 N    3.521 --     1 C    1.247     3 C    1.000     5 C    0.997
                            12 O    0.205
     3   6 C    3.963 --     4 C    1.398     6 C    1.397     2 N    1.000
                             8 C    0.105
     4   6 C    3.990 --     9 C    1.443     3 C    1.398    11 H    0.968
                             7 C    0.110
     5   6 C    3.971 --     2 N    0.997    13 H    0.978    14 H    0.976
                            15 H    0.975
     6   6 C    3.991 --     7 C    1.447     3 C    1.397    10 H    0.967
                             9 C    0.111
     7   6 C    3.992 --     6 C    1.447     8 C    1.435    16 H    0.971
                             4 C    0.110
     8   6 C    3.992 --     9 C    1.440     7 C    1.435    18 H    0.971
                             3 C    0.105
     9   6 C    3.992 --     4 C    1.443     8 C    1.440    17 H    0.970
                             6 C    0.111
    10   1 H    0.999 --     6 C    0.967
    11   1 H    0.997 --     4 C    0.968
    12   8 O    2.035 --     1 C    1.729     2 N    0.205
    13   1 H    0.996 --     5 C    0.978
    14   1 H    0.996 --     5 C    0.976
    15   1 H    0.997 --     5 C    0.975
    16   1 H    0.998 --     7 C    0.971
    17   1 H    0.998 --     9 C    0.970
    18   1 H    0.998 --     8 C    0.971
    19   1 H    0.999 --     1 C    0.917
 ---------------------------------------------------------------------------

molecular dipole:
                 x           y           z       tot (Debye)
 q only:       -0.833       0.583       1.186
   full:       -0.754       0.602       1.446       4.417

           -------------------------------------------------
          | TOTAL ENERGY              -28.698954662658 Eh   |
          | GRADIENT NORM               0.000951629609 Eh/α |
          | HOMO-LUMO GAP               4.133337381479 eV   |
           -------------------------------------------------

 * finished run on 2023/11/18 at 08:20:23.201
