   * xtb version 6.5.0 (97a52f5) compiled by 'conda@d2599ee0d4f4' on 2022-05-15
          program call               : /home/liuchw/anaconda3/envs/xtbenv/bin/xtb --gfn 2 --chrg 0 --uhf 0 3_24_Index_0-opt-2-5-341_preQMOPTprefit_xyzformat.xyz --opt --input xtb-opt-2-5-341_constr.txt

   ID    Z sym.   atoms
    1    6 C      1, 3-9
    2    7 N      2
    3    1 H      10, 11, 13-19
    4    8 O      12
constraining angle 1 2 5 14 to  340.9884107°, actual value:  -19.0115893°
constraining angle 1 2 3 4 to   37.0809481°, actual value:   37.0809481°
constraining angle 12 1 2 3 to  357.9977563°, actual value:   -2.0022437°

          :  Hamiltonian                  GFN2-xTB          :
 * total energy  :   -28.6898000 Eh     change       -0.1167869E-08 Eh
 * total energy  :   -28.6982609 Eh     change       -0.8460931E-02 Eh
 * total energy  :   -28.6993929 Eh     change       -0.1132006E-02 Eh
 * total energy  :   -28.6987933 Eh     change        0.5995547E-03 Eh
 * total energy  :   -28.6999919 Eh     change       -0.1198534E-02 Eh
 * total energy  :   -28.7001483 Eh     change       -0.1564271E-03 Eh
 * total energy  :   -28.7002614 Eh     change       -0.1130860E-03 Eh
 * total energy  :   -28.7003501 Eh     change       -0.8868537E-04 Eh
 * total energy  :   -28.7003878 Eh     change       -0.3776670E-04 Eh
 * total energy  :   -28.7004022 Eh     change       -0.1440261E-04 Eh
 * total energy  :   -28.7004084 Eh     change       -0.6162570E-05 Eh
 * total energy  :   -28.7004115 Eh     change       -0.3123835E-05 Eh
   *** GEOMETRY OPTIMIZATION CONVERGED AFTER 12 ITERATIONS ***

 final structure:
================
19
 xtb: 6.5.0 (97a52f5)
C            2.29911782272136        0.10082367490675        0.38201978500349
N            1.10859459850472       -0.34109969061311        0.85202766686442
C           -0.10716303700022       -0.10220463853748        0.16809101580547
C           -0.15008503060765       -0.13053262043450       -1.22314519189892
C            1.04466127979078       -1.00054973255112        2.13786401223464
C           -1.28080357976582        0.13482699952785        0.87856743507283
C           -2.47014639300772        0.35041003589972        0.20603499509200
C           -2.50800067625493        0.33053468952177       -1.17697442247185
C           -1.34322243232788        0.09077426275232       -1.88558000519118
H           -1.27505421848389        0.16507068110496        1.95678895977447
H            0.75077807401384       -0.31638683918143       -1.78301142849551
O            2.50090669272133        0.69833342608826       -0.64453551312456
H            0.69598765180742       -0.32315877364686        2.92243217812857
H            2.03891820233319       -1.34864643875768        2.41428092358119
H            0.36883486071340       -1.85408850998466        2.08058838289762
H           -3.37190672193984        0.53671521147690        0.77073161980482
H           -1.36154024400489        0.06765003821342       -2.96485058324798
H           -3.43851900746029        0.49919017468128       -1.69762599080120
H            3.12232314824709       -0.15887595046630        1.07688215097173

          :  Hamiltonian                  GFN2-xTB          :
         :: total energy             -28.700411531994 Eh    ::
         :: gradient norm              0.000386255484 Eh/a0 ::
         :: HOMO-LUMO gap              3.977656149512 eV    ::
         :: SCC energy               -29.150392891270 Eh    ::
         :: -> dispersion             -0.015979485965 Eh    ::
         :: repulsion energy           0.449925934386 Eh    ::

    * Orbital Energies and Occupations

         #    Occupation            Energy/Eh            Energy/eV
      -------------------------------------------------------------
         1        2.0000           -0.7023469             -19.1118
       ...           ...                  ...                  ...
        14        2.0000           -0.5133252             -13.9683
        15        2.0000           -0.5080005             -13.8234
        16        2.0000           -0.4986534             -13.5691
        17        2.0000           -0.4947090             -13.4617
        18        2.0000           -0.4858957             -13.2219
        19        2.0000           -0.4834875             -13.1564
        20        2.0000           -0.4802125             -13.0672
        21        2.0000           -0.4408015             -11.9948
        22        2.0000           -0.4398175             -11.9680
        23        2.0000           -0.4248373             -11.5604
        24        2.0000           -0.4098505             -11.1526
        25        2.0000           -0.3976056             -10.8194
        26        2.0000           -0.3856017             -10.4928 (HOMO)
        27                         -0.2394255              -6.5151 (LUMO)
        28                         -0.2275192              -6.1911
        29                         -0.2004903              -5.4556
        30                         -0.0946434              -2.5754
        31                         -0.0063036              -0.1715
        32                          0.0709853               1.9316
        33                          0.1088641               2.9623
        34                          0.1318275               3.5872
        35                          0.1501648               4.0862
        36                          0.1589043               4.3240
        37                          0.1677256               4.5640
       ...                                ...                  ...
        49                          0.6702824              18.2393
      -------------------------------------------------------------
                  HL-Gap            0.1461762 Eh            3.9777 eV

     #   Z          covCN         q      C6AA      α(0)
     1   6 C        2.712     0.248    22.838     7.823
     2   7 N        2.734    -0.077    22.735     7.082
     3   6 C        2.920     0.069    26.456     8.435
     4   6 C        2.922    -0.037    28.928     8.820
     5   6 C        3.701    -0.048    21.599     6.646
     6   6 C        2.922    -0.049    29.210     8.863
     7   6 C        2.921    -0.029    28.734     8.790
     8   6 C        2.919    -0.034    28.837     8.806
     9   6 C        2.921    -0.027    28.664     8.780
    10   1 H        0.926     0.035     2.522     2.483
    11   1 H        0.926     0.063     2.159     2.298
    12   8 O        0.857    -0.400    21.685     6.243
    13   1 H        0.924     0.055     2.256     2.349
    14   1 H        0.925     0.059     2.214     2.327
    15   1 H        0.924     0.062     2.172     2.305
    16   1 H        0.926     0.034     2.524     2.484
    17   1 H        0.926     0.040     2.453     2.449
    18   1 H        0.926     0.035     2.515     2.480
    19   1 H        0.922     0.000     3.051     2.732

Wiberg/Mayer (AO) data.
largest (>0.10) Wiberg bond orders for each atom

     #   Z sym  total        # sym  WBO       # sym  WBO       # sym  WBO
 ---------------------------------------------------------------------------
     1   6 C    3.954 --    12 O    1.735     2 N    1.235    19 H    0.917
     2   7 N    3.542 --     1 C    1.235     3 C    1.029     5 C    0.999
                            12 O    0.193
     3   6 C    3.960 --     6 C    1.385     4 C    1.383     2 N    1.029
                             8 C    0.101
     4   6 C    3.989 --     9 C    1.450     3 C    1.383    11 H    0.965
                             7 C    0.109
     5   6 C    3.970 --     2 N    0.999    15 H    0.979    14 H    0.977
                            13 H    0.973
     6   6 C    3.991 --     7 C    1.448     3 C    1.385    10 H    0.967
                             9 C    0.108
     7   6 C    3.992 --     6 C    1.448     8 C    1.436    16 H    0.971
                             4 C    0.109
     8   6 C    3.992 --     7 C    1.436     9 C    1.434    18 H    0.971
                             3 C    0.101
     9   6 C    3.992 --     4 C    1.450     8 C    1.434    17 H    0.970
                             6 C    0.108
    10   1 H    0.999 --     6 C    0.967
    11   1 H    0.996 --     4 C    0.965
    12   8 O    2.044 --     1 C    1.735     2 N    0.193
    13   1 H    0.997 --     5 C    0.973
    14   1 H    0.996 --     5 C    0.977
    15   1 H    0.996 --     5 C    0.979
    16   1 H    0.998 --     7 C    0.971
    17   1 H    0.998 --     9 C    0.970
    18   1 H    0.999 --     8 C    0.971
    19   1 H    0.999 --     1 C    0.917
 ---------------------------------------------------------------------------

molecular dipole:
                 x           y           z       tot (Debye)
 q only:       -0.790      -0.758       0.981
   full:       -0.745      -0.843       1.247       4.268

           -------------------------------------------------
          | TOTAL ENERGY              -28.700411531994 Eh   |
          | GRADIENT NORM               0.000386255484 Eh/α |
          | HOMO-LUMO GAP               3.977656149512 eV   |
           -------------------------------------------------

 * finished run on 2023/11/18 at 08:22:31.728
