   * xtb version 6.5.0 (97a52f5) compiled by 'conda@d2599ee0d4f4' on 2022-05-15
          program call               : /home/liuchw/anaconda3/envs/xtbenv/bin/xtb --gfn 2 --chrg 0 --uhf 0 3_24_Index_0-opt-2-5-011_preQMOPTprefit_xyzformat.xyz --opt --input xtb-opt-2-5-011_constr.txt

   ID    Z sym.   atoms
    1    6 C      1, 3-9
    2    7 N      2
    3    1 H      10, 11, 13-19
    4    8 O      12
constraining angle 1 2 5 14 to   10.9925242°, actual value:   10.9925242°
constraining angle 1 2 3 4 to   37.0909065°, actual value:   37.0909065°
constraining angle 12 1 2 3 to  358.0027743°, actual value:   -1.9972257°

          :  Hamiltonian                  GFN2-xTB          :
 * total energy  :   -28.6885282 Eh     change       -0.1283222E-08 Eh
 * total energy  :   -28.6972598 Eh     change       -0.8731561E-02 Eh
 * total energy  :   -28.6976809 Eh     change       -0.4210861E-03 Eh
 * total energy  :   -28.6975389 Eh     change        0.1420051E-03 Eh
 * total energy  :   -28.6986398 Eh     change       -0.1100935E-02 Eh
 * total energy  :   -28.6987525 Eh     change       -0.1127017E-03 Eh
 * total energy  :   -28.6988021 Eh     change       -0.4963067E-04 Eh
 * total energy  :   -28.6988431 Eh     change       -0.4098045E-04 Eh
 * total energy  :   -28.6988649 Eh     change       -0.2181955E-04 Eh
 * total energy  :   -28.6988744 Eh     change       -0.9436466E-05 Eh
 * total energy  :   -28.6988793 Eh     change       -0.4906479E-05 Eh
 * total energy  :   -28.6988803 Eh     change       -0.1044735E-05 Eh
 * total energy  :   -28.6988808 Eh     change       -0.4432690E-06 Eh
   *** GEOMETRY OPTIMIZATION CONVERGED AFTER 13 ITERATIONS ***

 final structure:
================
19
 xtb: 6.5.0 (97a52f5)
C            2.28263363706199        0.12240376898628        0.37726543065452
N            1.10183663397296       -0.30845199080024        0.87901198993088
C           -0.12142991784331       -0.09476142197716        0.19217448387156
C           -0.16868633509158       -0.17392702685348       -1.19670185919231
C            1.07493004245970       -1.07118612559684        2.10740933189115
C           -1.28388796742692        0.21650582130003        0.89175120423157
C           -2.46859137720519        0.43631070881482        0.21317743542453
C           -2.51192607419987        0.35550971595964       -1.16761826050277
C           -1.35682696205241        0.05261065962187       -1.86702265928948
H           -1.27442780699535        0.30702446247664        1.96689861522062
H            0.72452016300219       -0.40918761915389       -1.75041838349893
O            2.46776475224168        0.68379971899213       -0.67273148429531
H            0.35075307027289       -0.66362998750117        2.81203667663944
H            2.05528799572894       -1.03294516189095        2.57954269996272
H            0.81292598493258       -2.11212109792741        1.90213794821002
H           -3.36150545707444        0.67869818600118        0.77052172626099
H           -1.37770164966991       -0.01296798568032       -2.94449885307371
H           -3.43860461511013        0.52997991925660       -1.69316619608450
H            3.11661687299614       -0.10487952402784        1.07081716363896

          :  Hamiltonian                  GFN2-xTB          :
         :: total energy             -28.698880768021 Eh    ::
         :: gradient norm              0.000455185941 Eh/a0 ::
         :: HOMO-LUMO gap              4.007024555690 eV    ::
         :: SCC energy               -29.148921267685 Eh    ::
         :: -> dispersion             -0.015966110607 Eh    ::
         :: repulsion energy           0.449980438564 Eh    ::

    * Orbital Energies and Occupations

         #    Occupation            Energy/Eh            Energy/eV
      -------------------------------------------------------------
         1        2.0000           -0.7011818             -19.0801
       ...           ...                  ...                  ...
        14        2.0000           -0.5134058             -13.9705
        15        2.0000           -0.5067727             -13.7900
        16        2.0000           -0.4990671             -13.5803
        17        2.0000           -0.4948488             -13.4655
        18        2.0000           -0.4858083             -13.2195
        19        2.0000           -0.4837188             -13.1627
        20        2.0000           -0.4807637             -13.0822
        21        2.0000           -0.4417195             -12.0198
        22        2.0000           -0.4393402             -11.9551
        23        2.0000           -0.4244202             -11.5491
        24        2.0000           -0.4105012             -11.1703
        25        2.0000           -0.3968863             -10.7998
        26        2.0000           -0.3859304             -10.5017 (HOMO)
        27                         -0.2386750              -6.4947 (LUMO)
        28                         -0.2283180              -6.2128
        29                         -0.2018481              -5.4926
        30                         -0.0966649              -2.6304
        31                         -0.0075652              -0.2059
        32                          0.0725448               1.9740
        33                          0.0994523               2.7062
        34                          0.1332131               3.6249
        35                          0.1538687               4.1870
        36                          0.1579820               4.2989
        37                          0.1689692               4.5979
       ...                                ...                  ...
        49                          0.6702883              18.2395
      -------------------------------------------------------------
                  HL-Gap            0.1472554 Eh            4.0070 eV

     #   Z          covCN         q      C6AA      α(0)
     1   6 C        2.712     0.248    22.839     7.823
     2   7 N        2.734    -0.079    22.779     7.088
     3   6 C        2.920     0.069    26.446     8.433
     4   6 C        2.923    -0.036    28.896     8.815
     5   6 C        3.700    -0.049    21.611     6.648
     6   6 C        2.922    -0.046    29.137     8.852
     7   6 C        2.921    -0.029    28.729     8.790
     8   6 C        2.919    -0.033    28.819     8.803
     9   6 C        2.921    -0.026    28.659     8.779
    10   1 H        0.926     0.033     2.542     2.493
    11   1 H        0.926     0.063     2.159     2.298
    12   8 O        0.857    -0.402    21.729     6.250
    13   1 H        0.925     0.061     2.185     2.312
    14   1 H        0.925     0.058     2.218     2.329
    15   1 H        0.924     0.056     2.251     2.346
    16   1 H        0.926     0.035     2.513     2.479
    17   1 H        0.926     0.040     2.444     2.445
    18   1 H        0.926     0.036     2.505     2.475
    19   1 H        0.922    -0.000     3.063     2.737

Wiberg/Mayer (AO) data.
largest (>0.10) Wiberg bond orders for each atom

     #   Z sym  total        # sym  WBO       # sym  WBO       # sym  WBO
 ---------------------------------------------------------------------------
     1   6 C    3.954 --    12 O    1.733     2 N    1.239    19 H    0.916
     2   7 N    3.537 --     1 C    1.239     3 C    1.020     5 C    0.998
                            12 O    0.196
     3   6 C    3.961 --     6 C    1.388     4 C    1.387     2 N    1.020
                             8 C    0.102
     4   6 C    3.989 --     9 C    1.447     3 C    1.387    11 H    0.965
                             7 C    0.109
     5   6 C    3.970 --     2 N    0.998    14 H    0.977    15 H    0.976
                            13 H    0.972
     6   6 C    3.991 --     7 C    1.449     3 C    1.388    10 H    0.964
                             9 C    0.109
     7   6 C    3.992 --     6 C    1.449     8 C    1.435    16 H    0.971
                             4 C    0.109
     8   6 C    3.992 --     9 C    1.437     7 C    1.435    18 H    0.971
                             3 C    0.102
     9   6 C    3.992 --     4 C    1.447     8 C    1.437    17 H    0.970
                             6 C    0.109
    10   1 H    0.999 --     6 C    0.964
    11   1 H    0.996 --     4 C    0.965
    12   8 O    2.043 --     1 C    1.733     2 N    0.196
    13   1 H    0.996 --     5 C    0.972
    14   1 H    0.996 --     5 C    0.977
    15   1 H    0.997 --     5 C    0.976
    16   1 H    0.998 --     7 C    0.971
    17   1 H    0.998 --     9 C    0.970
    18   1 H    0.999 --     8 C    0.971
    19   1 H    0.999 --     1 C    0.916
 ---------------------------------------------------------------------------

molecular dipole:
                 x           y           z       tot (Debye)
 q only:       -0.808      -0.749       0.981
   full:       -0.758      -0.846       1.239       4.272

           -------------------------------------------------
          | TOTAL ENERGY              -28.698880768021 Eh   |
          | GRADIENT NORM               0.000455185941 Eh/α |
          | HOMO-LUMO GAP               4.007024555690 eV   |
           -------------------------------------------------

 * finished run on 2023/11/18 at 08:22:51.219
