   * xtb version 6.5.0 (97a52f5) compiled by 'conda@d2599ee0d4f4' on 2022-05-15
          program call               : /home/liuchw/anaconda3/envs/xtbenv/bin/xtb --gfn 2 --chrg 0 --uhf 0 3_25_Index_0_GrowFragment_3-opt-2-3-287_preQMOPTprefit_xyzformat.xyz --opt --input xtb-opt-2-3-287_constr.txt

   ID    Z sym.   atoms
    1    6 C      1, 3-5, 7-11
    2    7 N      2, 15
    3    8 O      6
    4    1 H      12-14, 16-24
constraining angle 1 2 3 4 to  286.9303469°, actual value:  -73.0696531°
constraining angle 11 1 2 3 to   53.1542447°, actual value:   53.1542447°
constraining angle 2 3 4 15 to  184.0373159°, actual value: -175.9626841°
constraining angle 1 2 5 13 to   29.9999571°, actual value:   29.9999571°
constraining angle 16 4 15 22 to   71.0249444°, actual value:   71.0249444°
constraining angle 17 4 15 22 to  186.0271577°, actual value: -173.9728423°
constraining angle 16 4 15 24 to  181.9670281°, actual value: -178.0329719°
constraining angle 17 4 15 24 to  296.9692414°, actual value:  -63.0307586°

          :  Hamiltonian                  GFN2-xTB          :
 * total energy  :   -35.2485326 Eh     change       -0.1536073E-08 Eh
 * total energy  :   -35.2577607 Eh     change       -0.9228135E-02 Eh
 * total energy  :   -35.2612558 Eh     change       -0.3495083E-02 Eh
 * total energy  :   -35.2636140 Eh     change       -0.2358140E-02 Eh
 * total energy  :   -35.2655362 Eh     change       -0.1922279E-02 Eh
 * total energy  :   -35.2679631 Eh     change       -0.2426897E-02 Eh
 * total energy  :   -35.2696746 Eh     change       -0.1711490E-02 Eh
 * total energy  :   -35.2708756 Eh     change       -0.1200996E-02 Eh
 * total energy  :   -35.2713261 Eh     change       -0.4504823E-03 Eh
 * total energy  :   -35.2715535 Eh     change       -0.2274193E-03 Eh
 * total energy  :   -35.2723015 Eh     change       -0.8725331E-04 Eh
 * total energy  :   -35.2723397 Eh     change       -0.3825011E-04 Eh
 * total energy  :   -35.2723517 Eh     change       -0.1200402E-04 Eh
 * total energy  :   -35.2723585 Eh     change       -0.6729274E-05 Eh
 * total energy  :   -35.2723636 Eh     change       -0.5169760E-05 Eh
 * total energy  :   -35.2723662 Eh     change       -0.2531418E-05 Eh
 * total energy  :   -35.2723676 Eh     change       -0.1462427E-05 Eh
 * total energy  :   -35.2723682 Eh     change       -0.5763425E-06 Eh
 * total energy  :   -35.2723685 Eh     change       -0.2935071E-06 Eh
   *** GEOMETRY OPTIMIZATION CONVERGED AFTER 21 ITERATIONS ***

 final structure:
================
24
 xtb: 6.5.0 (97a52f5)
C           -0.74139356312635       -0.34332431003930        0.20666657535262
N            0.31660085852312       -0.43126464472438        1.13759399757441
C            1.49848365741811        0.30969555622317        1.02989791102626
C            2.50643992389867       -0.07612083037517       -0.04448903136984
C           -0.05919226836906       -0.66857013941882        2.52935066824154
O            1.83774356942396        1.05720268599296        1.92211231494402
C           -2.03048255159068       -0.00199159747062        0.61985219855081
C           -2.83002301071403       -0.07094070071086       -1.64671988328492
C           -3.05906439277874        0.11950579931153       -0.29617299794958
C           -1.55220408072951       -0.39034577978201       -2.06953488115444
C           -0.52014646601602       -0.52017104386521       -1.15882244589241
H            0.74541732541919       -1.23040601791433        3.00262120603979
H           -0.97946160493530       -1.24341981115150        2.56164486888885
H           -0.20037926743508        0.26237460252182        3.08577454830974
N            3.72696690371425        0.70574513112917        0.00849975976560
H            2.10991021871158        0.02032139657165       -1.05837807866924
H            2.75217865130877       -1.13367476428060        0.09808101538350
H           -2.24293794765927        0.19677476383365        1.65777292224369
H           -4.04667202740891        0.38129180969804        0.05434025400396
H           -1.35106349112476       -0.54425973039217       -3.11940029231307
H            0.45002065146197       -0.81907290526554       -1.51706714738786
H            3.47835083179833        1.69289691969379       -0.02444914467380
H           -3.63450864840382        0.02923406265290       -2.35890447623473
H            4.13540173861359        0.60551754776196        0.93692513860483

          :  Hamiltonian                  GFN2-xTB          :
         :: total energy             -35.272368510469 Eh    ::
         :: gradient norm              0.000583897159 Eh/a0 ::
         :: HOMO-LUMO gap              3.443621252701 eV    ::
         :: SCC energy               -35.791634657283 Eh    ::
         :: -> dispersion             -0.020789970258 Eh    ::
         :: repulsion energy           0.519085105105 Eh    ::

    * Orbital Energies and Occupations

         #    Occupation            Energy/Eh            Energy/eV
      -------------------------------------------------------------
         1        2.0000           -0.7150660             -19.4579
       ...           ...                  ...                  ...
        20        2.0000           -0.4941775             -13.4473
        21        2.0000           -0.4920868             -13.3904
        22        2.0000           -0.4872749             -13.2594
        23        2.0000           -0.4844682             -13.1831
        24        2.0000           -0.4743697             -12.9083
        25        2.0000           -0.4548840             -12.3780
        26        2.0000           -0.4406423             -11.9905
        27        2.0000           -0.4365931             -11.8803
        28        2.0000           -0.4288531             -11.6697
        29        2.0000           -0.4179568             -11.3732
        30        2.0000           -0.4122590             -11.2181
        31        2.0000           -0.3802135             -10.3461
        32        2.0000           -0.3743350             -10.1862 (HOMO)
        33                         -0.2477842              -6.7426 (LUMO)
        34                         -0.2305426              -6.2734
        35                         -0.2233288              -6.0771
        36                         -0.1001244              -2.7245
        37                         -0.0135866              -0.3697
        38                          0.0615727               1.6755
        39                          0.0870536               2.3688
        40                          0.1006294               2.7383
        41                          0.1087530               2.9593
        42                          0.1284536               3.4954
        43                          0.1461354               3.9765
       ...                                ...                  ...
        60                          0.6603005              17.9677
      -------------------------------------------------------------
                  HL-Gap            0.1265508 Eh            3.4436 eV

     #   Z          covCN         q      C6AA      α(0)
     1   6 C        2.911     0.069    26.459     8.435
     2   7 N        2.734    -0.131    23.832     7.251
     3   6 C        2.771     0.265    22.530     7.774
     4   6 C        3.733    -0.008    20.818     6.512
     5   6 C        3.713    -0.034    21.317     6.597
     6   8 O        0.859    -0.400    21.671     6.241
     7   6 C        2.924    -0.050    29.232     8.867
     8   6 C        2.918    -0.037    28.911     8.817
     9   6 C        2.921    -0.029    28.716     8.788
    10   6 C        2.921    -0.028    28.697     8.785
    11   6 C        2.924    -0.054    29.340     8.883
    12   1 H        0.925     0.051     2.302     2.373
    13   1 H        0.925     0.055     2.259     2.350
    14   1 H        0.924     0.057     2.230     2.335
    15   7 N        2.628    -0.334    28.601     7.943
    16   1 H        0.924     0.059     2.205     2.322
    17   1 H        0.924     0.062     2.177     2.307
    18   1 H        0.926     0.040     2.449     2.447
    19   1 H        0.926     0.035     2.516     2.480
    20   1 H        0.926     0.035     2.510     2.477
    21   1 H        0.926     0.036     2.503     2.474
    22   1 H        0.860     0.151     1.392     1.848
    23   1 H        0.926     0.034     2.528     2.486
    24   1 H        0.860     0.152     1.384     1.843

Wiberg/Mayer (AO) data.
largest (>0.10) Wiberg bond orders for each atom

     #   Z sym  total        # sym  WBO       # sym  WBO       # sym  WBO
 ---------------------------------------------------------------------------
     1   6 C    3.964 --    11 C    1.375     7 C    1.373     2 N    1.044
     2   7 N    3.412 --     3 C    1.102     1 C    1.044     5 C    0.989
                             6 O    0.133
     3   6 C    3.933 --     6 O    1.761     2 N    1.102     4 C    0.964
     4   6 C    3.991 --    15 N    1.039     3 C    0.964    17 H    0.947
                            16 H    0.946
     5   6 C    3.971 --     2 N    0.989    12 H    0.981    13 H    0.979
                            14 H    0.976
     6   8 O    2.044 --     3 C    1.761     2 N    0.133
     7   6 C    3.989 --     9 C    1.450     1 C    1.373    18 H    0.965
                            10 C    0.107
     8   6 C    3.986 --     9 C    1.434    10 C    1.432    23 H    0.971
     9   6 C    3.991 --     7 C    1.450     8 C    1.434    19 H    0.970
                            11 C    0.107
    10   6 C    3.992 --    11 C    1.453     8 C    1.432    20 H    0.971
                             7 C    0.107
    11   6 C    3.990 --    10 C    1.453     1 C    1.375    21 H    0.959
                             9 C    0.107
    12   1 H    0.997 --     5 C    0.981
    13   1 H    0.997 --     5 C    0.979
    14   1 H    0.996 --     5 C    0.976
    15   7 N    3.008 --     4 C    1.039    22 H    0.960    24 H    0.960
    16   1 H    0.996 --     4 C    0.946
    17   1 H    0.996 --     4 C    0.947
    18   1 H    0.998 --     7 C    0.965
    19   1 H    0.998 --     9 C    0.970
    20   1 H    0.998 --    10 C    0.971
    21   1 H    0.999 --    11 C    0.959
    22   1 H    0.977 --    15 N    0.960
    23   1 H    0.998 --     8 C    0.971
    24   1 H    0.977 --    15 N    0.960
 ---------------------------------------------------------------------------

molecular dipole:
                 x           y           z       tot (Debye)
 q only:       -0.552      -0.652      -0.346
   full:       -0.825      -0.554      -0.120       2.544

           -------------------------------------------------
          | TOTAL ENERGY              -35.272368510469 Eh   |
          | GRADIENT NORM               0.000583897159 Eh/α |
          | HOMO-LUMO GAP               3.443621252701 eV   |
           -------------------------------------------------

 * finished run on 2023/11/18 at 08:27:25.078
