   * xtb version 6.5.0 (97a52f5) compiled by 'conda@d2599ee0d4f4' on 2022-05-15
          program call               : /home/liuchw/anaconda3/envs/xtbenv/bin/xtb --gfn 2 --chrg 0 --uhf 0 3_25_Index_0_GrowFragment_3-opt-2-3-007_preQMOPTprefit_xyzformat.xyz --opt --input xtb-opt-2-3-007_constr.txt

   ID    Z sym.   atoms
    1    6 C      1, 3-5, 7-11
    2    7 N      2, 15
    3    8 O      6
    4    1 H      12-14, 16-24
constraining angle 1 2 3 4 to    7.0992408°, actual value:    7.0992408°
constraining angle 11 1 2 3 to   53.1930457°, actual value:   53.1930457°
constraining angle 2 3 4 15 to  183.9434787°, actual value: -176.0565213°
constraining angle 1 2 5 13 to   30.0048112°, actual value:   30.0048112°
constraining angle 16 4 15 22 to   71.0318265°, actual value:   71.0318265°
constraining angle 17 4 15 22 to  186.0218043°, actual value: -173.9781957°
constraining angle 16 4 15 24 to  181.9743516°, actual value: -178.0256484°
constraining angle 17 4 15 24 to  296.9643294°, actual value:  -63.0356706°

          :  Hamiltonian                  GFN2-xTB          :
 * total energy  :   -35.2753535 Eh     change       -0.2388788E-08 Eh
 * total energy  :   -35.2866561 Eh     change       -0.1130256E-01 Eh
 * total energy  :   -35.2885445 Eh     change       -0.1888408E-02 Eh
 * total energy  :   -35.2875095 Eh     change        0.1035008E-02 Eh
 * total energy  :   -35.2896311 Eh     change       -0.2121637E-02 Eh
 * total energy  :   -35.2897576 Eh     change       -0.1265045E-03 Eh
 * total energy  :   -35.2899322 Eh     change       -0.1746191E-03 Eh
 * total energy  :   -35.2900425 Eh     change       -0.1102978E-03 Eh
 * total energy  :   -35.2900824 Eh     change       -0.3989784E-04 Eh
 * total energy  :   -35.2901109 Eh     change       -0.2846513E-04 Eh
 * total energy  :   -35.2901338 Eh     change       -0.2291315E-04 Eh
 * total energy  :   -35.2901485 Eh     change       -0.1467095E-04 Eh
 * total energy  :   -35.2901550 Eh     change       -0.6576123E-05 Eh
 * total energy  :   -35.2901566 Eh     change       -0.1578830E-05 Eh
   *** GEOMETRY OPTIMIZATION CONVERGED AFTER 14 ITERATIONS ***

 final structure:
================
24
 xtb: 6.5.0 (97a52f5)
C           -0.64001560049934       -0.37068238178348        0.18638842063276
N            0.49524877473892       -0.95677759671329        0.78686684787723
C            1.75359475835937       -0.43889325658607        0.80758249336146
C            1.96440667001764        0.97744710731570        0.27196207971854
C            0.28821601940046       -2.22607774033799        1.46621645723521
O            2.68458937143910       -1.05616417113018        1.29108600908091
C           -1.79990472983196       -0.20412432812820        0.93871006769739
C           -2.90634708385514        0.78390251439930       -0.94770803301533
C           -2.92426832382881        0.36746662533516        0.37237154669958
C           -1.76045984326752        0.60731940092820       -1.70438406195357
C           -0.63329177497548        0.03344024842046       -1.14519599735659
H            1.21156392813859       -2.80079259026063        1.40155023450631
H           -0.52307554712073       -2.76882057291686        0.98527086208011
H            0.05250086526565       -2.07617998806732        2.52247587662753
N            3.36063995852625        1.37393859830771        0.26742941585465
H            1.40584988081602        1.67675246213052        0.90580855797527
H            1.57997487877615        1.10069687605957       -0.73986494743968
H           -1.81670219488516       -0.51757722454832        1.97125850812836
H           -3.81603347525626        0.49342902096275        0.96820827162616
H           -1.74404064609394        0.91077424677580       -2.74053062670249
H            0.23590989036501       -0.14716299231153       -1.75900201591537
H            3.75204983050779        1.16631534838383        1.18560817367827
H           -3.78284311516160        1.23484167492152       -1.38718396569156
H            3.87242650842200        0.74393172884377       -0.34772916470457

          :  Hamiltonian                  GFN2-xTB          :
         :: total energy             -35.290156627825 Eh    ::
         :: gradient norm              0.000402314689 Eh/a0 ::
         :: HOMO-LUMO gap              3.378744584218 eV    ::
         :: SCC energy               -35.813484135484 Eh    ::
         :: -> dispersion             -0.021068050806 Eh    ::
         :: repulsion energy           0.523172360146 Eh    ::

    * Orbital Energies and Occupations

         #    Occupation            Energy/Eh            Energy/eV
      -------------------------------------------------------------
         1        2.0000           -0.7002408             -19.0545
       ...           ...                  ...                  ...
        20        2.0000           -0.4961261             -13.5003
        21        2.0000           -0.4929930             -13.4150
        22        2.0000           -0.4917753             -13.3819
        23        2.0000           -0.4848782             -13.1942
        24        2.0000           -0.4773915             -12.9905
        25        2.0000           -0.4506884             -12.2639
        26        2.0000           -0.4461537             -12.1405
        27        2.0000           -0.4412636             -12.0074
        28        2.0000           -0.4287277             -11.6663
        29        2.0000           -0.4206695             -11.4470
        30        2.0000           -0.4067920             -11.0694
        31        2.0000           -0.3884737             -10.5709
        32        2.0000           -0.3685869             -10.0298 (HOMO)
        33                         -0.2444204              -6.6510 (LUMO)
        34                         -0.2392417              -6.5101
        35                         -0.2043137              -5.5597
        36                         -0.1085261              -2.9531
        37                         -0.0124908              -0.3399
        38                          0.0698037               1.8995
        39                          0.0724472               1.9714
        40                          0.1037846               2.8241
        41                          0.1300954               3.5401
        42                          0.1381356               3.7589
        43                          0.1464384               3.9848
       ...                                ...                  ...
        60                          0.6560579              17.8522
      -------------------------------------------------------------
                  HL-Gap            0.1241666 Eh            3.3787 eV

     #   Z          covCN         q      C6AA      α(0)
     1   6 C        2.916     0.062    26.619     8.460
     2   7 N        2.738    -0.099    23.171     7.149
     3   6 C        2.764     0.254    22.735     7.808
     4   6 C        3.733    -0.007    20.801     6.510
     5   6 C        3.707    -0.040    21.432     6.618
     6   8 O        0.859    -0.440    22.489     6.358
     7   6 C        2.924    -0.044    29.084     8.844
     8   6 C        2.919    -0.032    28.805     8.801
     9   6 C        2.920    -0.028    28.689     8.783
    10   6 C        2.920    -0.027    28.676     8.782
    11   6 C        2.922    -0.045    29.119     8.849
    12   1 H        0.925     0.082     1.958     2.188
    13   1 H        0.925     0.050     2.326     2.385
    14   1 H        0.924     0.050     2.324     2.384
    15   7 N        2.628    -0.336    28.660     7.951
    16   1 H        0.924     0.047     2.356     2.400
    17   1 H        0.925     0.051     2.312     2.378
    18   1 H        0.926     0.042     2.418     2.432
    19   1 H        0.926     0.040     2.453     2.449
    20   1 H        0.926     0.040     2.443     2.444
    21   1 H        0.926     0.039     2.465     2.455
    22   1 H        0.860     0.156     1.363     1.829
    23   1 H        0.926     0.039     2.461     2.453
    24   1 H        0.860     0.147     1.422     1.868

Wiberg/Mayer (AO) data.
largest (>0.10) Wiberg bond orders for each atom

     #   Z sym  total        # sym  WBO       # sym  WBO       # sym  WBO
 ---------------------------------------------------------------------------
     1   6 C    3.967 --     7 C    1.388    11 C    1.387     2 N    1.028
                             8 C    0.104
     2   7 N    3.506 --     3 C    1.214     1 C    1.028     5 C    0.982
                             6 O    0.176
     3   6 C    3.945 --     6 O    1.683     2 N    1.214     4 C    0.952
     4   6 C    3.992 --    15 N    1.039    17 H    0.956    16 H    0.955
                             3 C    0.952
     5   6 C    3.966 --    13 H    0.984     2 N    0.982    14 H    0.976
                            12 H    0.973
     6   8 O    2.000 --     3 C    1.683     2 N    0.176
     7   6 C    3.991 --     9 C    1.449     1 C    1.388    18 H    0.968
                            10 C    0.109
     8   6 C    3.986 --     9 C    1.436    10 C    1.435    23 H    0.971
                             1 C    0.104
     9   6 C    3.991 --     7 C    1.449     8 C    1.436    19 H    0.970
                            11 C    0.109
    10   6 C    3.991 --    11 C    1.448     8 C    1.435    20 H    0.970
                             7 C    0.109
    11   6 C    3.991 --    10 C    1.448     1 C    1.387    21 H    0.965
                             9 C    0.109
    12   1 H    0.992 --     5 C    0.973
    13   1 H    0.997 --     5 C    0.984
    14   1 H    0.997 --     5 C    0.976
    15   7 N    3.005 --     4 C    1.039    24 H    0.963    22 H    0.958
    16   1 H    0.998 --     4 C    0.955
    17   1 H    0.997 --     4 C    0.956
    18   1 H    0.998 --     7 C    0.968
    19   1 H    0.998 --     9 C    0.970
    20   1 H    0.998 --    10 C    0.970
    21   1 H    0.998 --    11 C    0.965
    22   1 H    0.976 --    15 N    0.958
    23   1 H    0.998 --     8 C    0.971
    24   1 H    0.978 --    15 N    0.963
 ---------------------------------------------------------------------------

molecular dipole:
                 x           y           z       tot (Debye)
 q only:       -1.346       0.060      -0.350
   full:       -1.496      -0.207      -0.305       3.915

           -------------------------------------------------
          | TOTAL ENERGY              -35.290156627825 Eh   |
          | GRADIENT NORM               0.000402314689 Eh/α |
          | HOMO-LUMO GAP               3.378744584218 eV   |
           -------------------------------------------------

 * finished run on 2023/11/18 at 08:31:03.996
