   * xtb version 6.5.0 (97a52f5) compiled by 'conda@d2599ee0d4f4' on 2022-05-15
          program call               : /home/liuchw/anaconda3/envs/xtbenv/bin/xtb --gfn 2 --chrg 0 --uhf 0 3_25_Index_0_GrowFragment_3-opt-2-3-119_preQMOPTprefit_xyzformat.xyz --opt --input xtb-opt-2-3-119_constr.txt

   ID    Z sym.   atoms
    1    6 C      1, 3-5, 7-11
    2    7 N      2, 15
    3    8 O      6
    4    1 H      12-14, 16-24
constraining angle 1 2 3 4 to  118.9953585°, actual value:  118.9953585°
constraining angle 11 1 2 3 to   53.0453809°, actual value:   53.0453809°
constraining angle 2 3 4 15 to  184.0118403°, actual value: -175.9881597°
constraining angle 1 2 5 13 to   29.9853362°, actual value:   29.9853362°
constraining angle 16 4 15 22 to   71.0210750°, actual value:   71.0210750°
constraining angle 17 4 15 22 to  186.0272919°, actual value: -173.9727081°
constraining angle 16 4 15 24 to  181.9805175°, actual value: -178.0194825°
constraining angle 17 4 15 24 to  296.9867345°, actual value:  -63.0132655°

          :  Hamiltonian                  GFN2-xTB          :
 * total energy  :   -35.2274872 Eh     change       -0.3035154E-09 Eh
 * total energy  :   -35.2445205 Eh     change       -0.1703330E-01 Eh
 * total energy  :   -35.2512782 Eh     change       -0.6757647E-02 Eh
 * total energy  :   -35.2547246 Eh     change       -0.3446469E-02 Eh
 * total energy  :   -35.2572010 Eh     change       -0.2476351E-02 Eh
 * total energy  :   -35.2587930 Eh     change       -0.1591979E-02 Eh
 * total energy  :   -35.2591232 Eh     change       -0.3302035E-03 Eh
 * total energy  :   -35.2595894 Eh     change       -0.4662038E-03 Eh
 * total energy  :   -35.2602418 Eh     change       -0.6523820E-03 Eh
 * total energy  :   -35.2605338 Eh     change       -0.2919928E-03 Eh
 * total energy  :   -35.2770598 Eh     change       -0.7864849E-03 Eh
 * total energy  :   -35.2776670 Eh     change       -0.6071561E-03 Eh
 * total energy  :   -35.2779284 Eh     change       -0.2614015E-03 Eh
 * total energy  :   -35.2780570 Eh     change       -0.1286156E-03 Eh
 * total energy  :   -35.2781316 Eh     change       -0.7463266E-04 Eh
 * total energy  :   -35.2781578 Eh     change       -0.2618325E-04 Eh
 * total energy  :   -35.2781685 Eh     change       -0.1067234E-04 Eh
 * total energy  :   -35.2781727 Eh     change       -0.4189907E-05 Eh
 * total energy  :   -35.2781745 Eh     change       -0.1805379E-05 Eh
   *** GEOMETRY OPTIMIZATION CONVERGED AFTER 30 ITERATIONS ***

 final structure:
================
24
 xtb: 6.5.0 (97a52f5)
C           -0.73842321677186       -0.44886358616634       -0.09916393875137
N            0.45974533737407       -0.90297849937511        0.49989982404694
C            1.64162487762482       -0.25804564928365        0.16451268760037
C            2.40838072858701        0.41883271700241        1.30105443817087
C            0.36113452858265       -1.53128825441219        1.80401028390359
O            1.98724628503348       -0.09107603622212       -0.98386536610722
C           -1.83616331453710       -0.08421327999590        0.67548114503832
C           -3.06860035005424        0.48200303594815       -1.30986219177004
C           -2.99206076925033        0.37198249407157        0.06706159019678
C           -1.97363518472982        0.13094636393743       -2.08126816492306
C           -0.81878614060644       -0.33931816101756       -1.48550454496190
H            1.14792562520902       -2.27950957899204        1.89551051195539
H           -0.60808662171033       -2.01951680810683        1.88008057156859
H            0.44662085014308       -0.82414013519057        2.63630806398590
N            3.57850638149722        1.14561162963285        0.85053287486449
H            2.73452291011822       -0.29176011988052        2.06779651625363
H            1.72755338291311        1.12153983895646        1.79484372377491
H           -1.79589851926562       -0.13410352864844        1.75264854085379
H           -3.83578149429236        0.65226230636116        0.68095184422284
H           -2.02015188784179        0.21335700311996       -3.15691918339336
H            0.03326372286823       -0.61150774670492       -2.08593902363942
H            4.16031167857585        0.51120889060494        0.30595573637430
H           -3.97329500226153        0.84119669218411       -1.77658308008695
H            3.28403718279482        1.83438144217648        0.15965116082367

          :  Hamiltonian                  GFN2-xTB          :
         :: total energy             -35.278174469580 Eh    ::
         :: gradient norm              0.000816663597 Eh/a0 ::
         :: HOMO-LUMO gap              3.431033257456 eV    ::
         :: SCC energy               -35.798788982931 Eh    ::
         :: -> dispersion             -0.020876726021 Eh    ::
         :: repulsion energy           0.520432545906 Eh    ::

    * Orbital Energies and Occupations

         #    Occupation            Energy/Eh            Energy/eV
      -------------------------------------------------------------
         1        2.0000           -0.7131459             -19.4057
       ...           ...                  ...                  ...
        20        2.0000           -0.4947288             -13.4623
        21        2.0000           -0.4915763             -13.3765
        22        2.0000           -0.4814114             -13.0999
        23        2.0000           -0.4794110             -13.0454
        24        2.0000           -0.4767668             -12.9735
        25        2.0000           -0.4556001             -12.3975
        26        2.0000           -0.4393641             -11.9557
        27        2.0000           -0.4342332             -11.8161
        28        2.0000           -0.4249922             -11.5646
        29        2.0000           -0.4108488             -11.1798
        30        2.0000           -0.4063197             -11.0565
        31        2.0000           -0.3879027             -10.5554
        32        2.0000           -0.3675091             -10.0004 (HOMO)
        33                         -0.2414209              -6.5694 (LUMO)
        34                         -0.2247265              -6.1151
        35                         -0.2197625              -5.9800
        36                         -0.0941210              -2.5612
        37                         -0.0052163              -0.1419
        38                          0.0610777               1.6620
        39                          0.0792121               2.1555
        40                          0.1076626               2.9296
        41                          0.1180216               3.2115
        42                          0.1364451               3.7129
        43                          0.1390214               3.7830
       ...                                ...                  ...
        60                          0.6651018              18.0983
      -------------------------------------------------------------
                  HL-Gap            0.1260882 Eh            3.4310 eV

     #   Z          covCN         q      C6AA      α(0)
     1   6 C        2.925     0.069    26.450     8.434
     2   7 N        2.736    -0.120    23.606     7.216
     3   6 C        2.767     0.263    22.562     7.779
     4   6 C        3.732    -0.008    20.808     6.511
     5   6 C        3.699    -0.045    21.553     6.640
     6   8 O        0.858    -0.398    21.631     6.236
     7   6 C        2.921    -0.054    29.337     8.882
     8   6 C        2.918    -0.037    28.916     8.818
     9   6 C        2.921    -0.030    28.757     8.794
    10   6 C        2.921    -0.028    28.694     8.784
    11   6 C        2.923    -0.045    29.125     8.850
    12   1 H        0.925     0.053     2.278     2.360
    13   1 H        0.925     0.066     2.135     2.285
    14   1 H        0.924     0.039     2.458     2.452
    15   7 N        2.628    -0.334    28.595     7.942
    16   1 H        0.924     0.054     2.276     2.359
    17   1 H        0.924     0.052     2.294     2.368
    18   1 H        0.926     0.031     2.577     2.510
    19   1 H        0.926     0.032     2.561     2.503
    20   1 H        0.926     0.037     2.492     2.469
    21   1 H        0.926     0.065     2.136     2.285
    22   1 H        0.860     0.153     1.379     1.840
    23   1 H        0.926     0.032     2.555     2.500
    24   1 H        0.860     0.152     1.390     1.847

Wiberg/Mayer (AO) data.
largest (>0.10) Wiberg bond orders for each atom

     #   Z sym  total        # sym  WBO       # sym  WBO       # sym  WBO
 ---------------------------------------------------------------------------
     1   6 C    3.960 --     7 C    1.380    11 C    1.379     2 N    1.025
     2   7 N    3.432 --     3 C    1.127     1 C    1.025     5 C    1.001
                             6 O    0.140
     3   6 C    3.937 --     6 O    1.754     2 N    1.127     4 C    0.952
     4   6 C    3.990 --    15 N    1.041    16 H    0.957     3 C    0.952
                            17 H    0.950
     5   6 C    3.975 --     2 N    1.001    12 H    0.980    13 H    0.979
                            14 H    0.974
     6   8 O    2.051 --     3 C    1.754     2 N    0.140
     7   6 C    3.988 --     9 C    1.445     1 C    1.380    18 H    0.967
                            10 C    0.107
     8   6 C    3.989 --     9 C    1.437    10 C    1.432    23 H    0.971
     9   6 C    3.992 --     7 C    1.445     8 C    1.437    19 H    0.971
                            11 C    0.109
    10   6 C    3.992 --    11 C    1.453     8 C    1.432    20 H    0.971
                             7 C    0.107
    11   6 C    3.988 --    10 C    1.453     1 C    1.379    21 H    0.963
                             9 C    0.109
    12   1 H    0.996 --     5 C    0.980
    13   1 H    0.996 --     5 C    0.979
    14   1 H    0.998 --     5 C    0.974
    15   7 N    3.010 --     4 C    1.041    24 H    0.961    22 H    0.959
    16   1 H    0.997 --     4 C    0.957
    17   1 H    0.997 --     4 C    0.950
    18   1 H    0.999 --     7 C    0.967
    19   1 H    0.998 --     9 C    0.971
    20   1 H    0.998 --    10 C    0.971
    21   1 H    0.996 --    11 C    0.963
    22   1 H    0.976 --    15 N    0.959
    23   1 H    0.999 --     8 C    0.971
    24   1 H    0.977 --    15 N    0.961
 ---------------------------------------------------------------------------

molecular dipole:
                 x           y           z       tot (Debye)
 q only:       -0.502      -0.301       0.937
   full:       -0.702      -0.374       0.937       3.123

           -------------------------------------------------
          | TOTAL ENERGY              -35.278174469580 Eh   |
          | GRADIENT NORM               0.000816663597 Eh/α |
          | HOMO-LUMO GAP               3.431033257456 eV   |
           -------------------------------------------------

 * finished run on 2023/11/18 at 08:29:29.347
