                               Psi4 1.6 release

  ==> Input File <==

--------------------------------------------------------------------------
molecule {
0 1
 C   -0.702600   -0.352542    0.241782
 N    0.319571   -0.410327    1.214345
 C    1.540600    0.220092    1.127787
 C    2.328261    0.168448   -0.175134
 C   -0.101007   -0.672006    2.585870
 O    2.075357    0.647852    2.133206
 C   -1.977182    0.088027    0.602997
 C   -2.743512   -0.131263   -1.663045
 C   -2.984086    0.188615   -0.338294
 C   -1.482065   -0.561785   -2.032104
 C   -0.468995   -0.668242   -1.095433
 H    0.704020   -1.207033    3.088624
 H   -1.001756   -1.279957    2.575024
 H   -0.285336    0.251111    3.142512
 N    3.631338    0.799124   -0.074424
 H    1.790402    0.644253   -1.002424
 H    2.482125   -0.878488   -0.455798
 H   -2.186629    0.375060    1.621098
 H   -3.961296    0.531548   -0.031850
 H   -1.278616   -0.823081   -3.059966
 H    0.484002   -1.059211   -1.405968
 H    3.505280    1.744685    0.283451
 H   -3.530187   -0.048437   -2.397048
 H    4.152298    0.340555    0.671991
}
memory 20GB
set_num_threads(5)
psi4_io.set_default_path("/scratch/liuchw/Psi4-3_25_Index_0_GrowFragment_3-farH_in17")
set freeze_core True
E, wfn = energy('wb97x-d/6-311+G*',return_wfn=True)
oeprop(wfn,"WIBERG_LOWDIN_INDICES")
clean()
--------------------------------------------------------------------------

    Molecular point group: c1

    Geometry (in Angstrom), charge = 0, multiplicity = 1:

       Center              X                  Y                   Z               Mass
    ------------   -----------------  -----------------  -----------------  -----------------
         C           -0.765454736202    -0.314386033928    -0.027509087452    12.000000000000
         N            0.256716263798    -0.372171033928     0.945053912548    14.003074004430
         C            1.477745263798     0.258247966072     0.858495912548    12.000000000000
         C            2.265406263798     0.206603966072    -0.444425087452    12.000000000000
         C           -0.163861736202    -0.633850033928     2.316578912548    12.000000000000
         O            2.012502263798     0.686007966072     1.863914912548    15.994914619570
         C           -2.040036736202     0.126182966072     0.333705912548    12.000000000000
         C           -2.806366736202    -0.093107033928    -1.932336087452    12.000000000000
         C           -3.046940736202     0.226770966072    -0.607585087452    12.000000000000
         C           -1.544919736202    -0.523629033928    -2.301395087452    12.000000000000
         C           -0.531849736202    -0.630086033928    -1.364724087452    12.000000000000
         H            0.641165263798    -1.168877033928     2.819332912548     1.007825032230
         H           -1.064610736202    -1.241801033928     2.305732912548     1.007825032230
         H           -0.348190736202     0.289266966072     2.873220912548     1.007825032230
         N            3.568483263798     0.837279966072    -0.343715087452    14.003074004430
         H            1.727547263798     0.682408966072    -1.271715087452     1.007825032230
         H            2.419270263798    -0.840332033928    -0.725089087452     1.007825032230
         H           -2.249483736202     0.413215966072     1.351806912548     1.007825032230
         H           -4.024150736202     0.569703966072    -0.301141087452     1.007825032230
         H           -1.341470736202    -0.784925033928    -3.329257087452     1.007825032230
         H            0.421147263798    -1.021055033928    -1.675259087452     1.007825032230
         H            3.442425263798     1.782840966072     0.014159912548     1.007825032230
         H           -3.593041736202    -0.010281033928    -2.666339087452     1.007825032230
         H            4.089443263798     0.378710966072     0.402699912548     1.007825032230

  Charge       = 0
  Multiplicity = 1
  Basis Set: 6-311+G*
    Blend: 6-311+G*
  Basis Set: (6-311+G* AUX)
    Blend: HEAVY-AUG-CC-PVTZ-JKFIT

    Orbital Energies [Eh]
    ---------------------

    Doubly Occupied:

       1A    -19.228397     2A    -14.477154     3A    -14.411715
       4A    -10.395275     5A    -10.346965     6A    -10.321502
       7A    -10.314546     8A    -10.300253     9A    -10.300075
      10A    -10.299078    11A    -10.298692    12A    -10.294585
      13A     -1.165082    14A     -1.063328    15A     -0.991167
      16A     -0.970525    17A     -0.869675    18A     -0.863223
      19A     -0.832823    20A     -0.776865    21A     -0.732888
      22A     -0.716731    23A     -0.666214    24A     -0.623044
      25A     -0.604046    26A     -0.599325    27A     -0.577868
      28A     -0.566672    29A     -0.551014    30A     -0.539352
      31A     -0.524294    32A     -0.511317    33A     -0.502443
      34A     -0.491112    35A     -0.488180    36A     -0.473026
      37A     -0.456253    38A     -0.446570    39A     -0.440188
      40A     -0.385111    41A     -0.361680    42A     -0.346682
      43A     -0.333908    44A     -0.308923

  @DF-RKS Final Energy:  -534.85344965885793

   => Energetics <=

    Nuclear Repulsion Energy =            687.9314072051897710
    One-Electron Energy =               -2088.5855377836228399
    Two-Electron Energy =                 918.0285539237080457
    DFT Exchange-Correlation Energy =     -52.2130780470875351
    Empirical Dispersion Energy =          -0.0147949570454195
    VV10 Nonlocal Energy =                  0.0000000000000000
    Total Energy =                       -534.8534496588579259
 Dipole X            :         -1.2352019            0.1111031           -1.1240988
 Dipole Y            :          0.4563552           -0.8897038           -0.4333486
 Dipole Z            :         -0.0254448           -0.1820160           -0.2074607
 Magnitude           :                                                    1.2224684
*** Psi4 exiting successfully. Buy a developer a beer!
