   * xtb version 6.5.0 (97a52f5) compiled by 'conda@d2599ee0d4f4' on 2022-05-15
          program call               : /home/liuchw/anaconda3/envs/xtbenv/bin/xtb --gfn 2 --chrg 0 --uhf 0 3_25_Index_0_GrowFragment_3-opt-2-3-315_preQMOPTprefit_xyzformat.xyz --opt --input xtb-opt-2-3-315_constr.txt

   ID    Z sym.   atoms
    1    6 C      1, 3-5, 7-11
    2    7 N      2, 15
    3    8 O      6
    4    1 H      12-14, 16-24
constraining angle 1 2 3 4 to  314.9649178°, actual value:  -45.0350822°
constraining angle 11 1 2 3 to   53.1927666°, actual value:   53.1927666°
constraining angle 2 3 4 15 to  184.0494637°, actual value: -175.9505363°
constraining angle 1 2 5 13 to   29.9958786°, actual value:   29.9958786°
constraining angle 16 4 15 22 to   71.0216596°, actual value:   71.0216596°
constraining angle 17 4 15 22 to  186.0395200°, actual value: -173.9604800°
constraining angle 16 4 15 24 to  181.9647635°, actual value: -178.0352365°
constraining angle 17 4 15 24 to  296.9826239°, actual value:  -63.0173761°

          :  Hamiltonian                  GFN2-xTB          :
 * total energy  :   -35.2543851 Eh     change       -0.3432625E-08 Eh
 * total energy  :   -35.2666922 Eh     change       -0.1230719E-01 Eh
 * total energy  :   -35.2679886 Eh     change       -0.1296315E-02 Eh
 * total energy  :   -35.2740066 Eh     change       -0.6018017E-02 Eh
 * total energy  :   -35.2766509 Eh     change       -0.2644301E-02 Eh
 * total energy  :   -35.2794127 Eh     change       -0.2761816E-02 Eh
 * total energy  :   -35.2808541 Eh     change       -0.1441414E-02 Eh
 * total energy  :   -35.2818061 Eh     change       -0.9519599E-03 Eh
 * total energy  :   -35.2824141 Eh     change       -0.6080483E-03 Eh
 * total energy  :   -35.2821548 Eh     change        0.2593436E-03 Eh
 * total energy  :   -35.2827878 Eh     change        0.4933997E-04 Eh
 * total energy  :   -35.2831041 Eh     change       -0.3163133E-03 Eh
 * total energy  :   -35.2831610 Eh     change       -0.5681570E-04 Eh
 * total energy  :   -35.2832069 Eh     change       -0.4590082E-04 Eh
 * total energy  :   -35.2832293 Eh     change       -0.2245104E-04 Eh
 * total energy  :   -35.2832376 Eh     change       -0.8247500E-05 Eh
 * total energy  :   -35.2832433 Eh     change       -0.5738990E-05 Eh
 * total energy  :   -35.2832461 Eh     change       -0.2812048E-05 Eh
 * total energy  :   -35.2832476 Eh     change       -0.1466271E-05 Eh
   *** GEOMETRY OPTIMIZATION CONVERGED AFTER 20 ITERATIONS ***

 final structure:
================
24
 xtb: 6.5.0 (97a52f5)
C           -0.70260011644532       -0.35254154649669        0.24178179389082
N            0.31957093733473       -0.41032723144122        1.21434466423212
C            1.54060008969245        0.22009200209323        1.12778702193067
C            2.32826097378338        0.16844771639746       -0.17513415914895
C           -0.10100711829202       -0.67200583451078        2.58586960919747
O            2.07535672399663        0.64785161308201        2.13320604884486
C           -1.97718186678319        0.08802712084964        0.60299670900548
C           -2.74351224491732       -0.13126276424864       -1.66304465817886
C           -2.98408636452585        0.18861463158185       -0.33829412426418
C           -1.48206538612375       -0.56178511432793       -2.03210430022375
C           -0.46899521062069       -0.66824189115627       -1.09543330959884
H            0.70401954741100       -1.20703260050722        3.08862446956975
H           -1.00175582883863       -1.27995713893551        2.57502371207214
H           -0.28533563364863        0.25111099502337        3.14251181992698
N            3.63133816508301        0.79912368722912       -0.07442363983732
H            1.79040221981031        0.64425273208506       -1.00242370052123
H            2.48212487878175       -0.87848824086438       -0.45579785666100
H           -2.18662939340907        0.37506049969035        1.62109762142621
H           -3.96129597913333        0.53154826946643       -0.03185008417587
H           -1.27861584989509       -0.82308056616089       -3.05996628697398
H            0.48400225321246       -1.05921107707850       -1.40596766882097
H            3.50527969165851        1.74468540559243        0.28345077687763
H           -3.53018746835273       -0.04843650029138       -2.39704841482307
H            4.15229798022203        0.34055483292808        0.67199097625356

          :  Hamiltonian                  GFN2-xTB          :
         :: total energy             -35.283247577874 Eh    ::
         :: gradient norm              0.000968621955 Eh/a0 ::
         :: HOMO-LUMO gap              3.589738546563 eV    ::
         :: SCC energy               -35.803802968639 Eh    ::
         :: -> dispersion             -0.020910899365 Eh    ::
         :: repulsion energy           0.520388355568 Eh    ::

    * Orbital Energies and Occupations

         #    Occupation            Energy/Eh            Energy/eV
      -------------------------------------------------------------
         1        2.0000           -0.7060585             -19.2128
       ...           ...                  ...                  ...
        20        2.0000           -0.4958833             -13.4937
        21        2.0000           -0.4903745             -13.3438
        22        2.0000           -0.4894627             -13.3190
        23        2.0000           -0.4852450             -13.2042
        24        2.0000           -0.4756382             -12.9428
        25        2.0000           -0.4511125             -12.2754
        26        2.0000           -0.4438352             -12.0774
        27        2.0000           -0.4405913             -11.9891
        28        2.0000           -0.4297101             -11.6930
        29        2.0000           -0.4162596             -11.3270
        30        2.0000           -0.4118248             -11.2063
        31        2.0000           -0.3847060             -10.4684
        32        2.0000           -0.3730176             -10.1503 (HOMO)
        33                         -0.2410972              -6.5606 (LUMO)
        34                         -0.2346799              -6.3860
        35                         -0.2155047              -5.8642
        36                         -0.1041575              -2.8343
        37                         -0.0127271              -0.3463
        38                          0.0644204               1.7530
        39                          0.0852466               2.3197
        40                          0.1074336               2.9234
        41                          0.1148398               3.1249
        42                          0.1361444               3.7047
        43                          0.1437770               3.9124
       ...                                ...                  ...
        60                          0.6574248              17.8894
      -------------------------------------------------------------
                  HL-Gap            0.1319205 Eh            3.5897 eV

     #   Z          covCN         q      C6AA      α(0)
     1   6 C        2.912     0.064    26.565     8.452
     2   7 N        2.736    -0.107    23.346     7.176
     3   6 C        2.772     0.256    22.693     7.802
     4   6 C        3.732    -0.005    20.767     6.504
     5   6 C        3.714    -0.036    21.338     6.600
     6   8 O        0.859    -0.425    22.179     6.314
     7   6 C        2.924    -0.048    29.183     8.859
     8   6 C        2.918    -0.035    28.863     8.810
     9   6 C        2.920    -0.028    28.707     8.786
    10   6 C        2.921    -0.028    28.691     8.784
    11   6 C        2.923    -0.053    29.308     8.878
    12   1 H        0.925     0.065     2.143     2.289
    13   1 H        0.925     0.053     2.280     2.361
    14   1 H        0.924     0.057     2.239     2.340
    15   7 N        2.628    -0.335    28.633     7.947
    16   1 H        0.924     0.053     2.280     2.361
    17   1 H        0.924     0.054     2.272     2.357
    18   1 H        0.926     0.042     2.427     2.436
    19   1 H        0.926     0.037     2.490     2.468
    20   1 H        0.926     0.038     2.477     2.461
    21   1 H        0.926     0.041     2.436     2.441
    22   1 H        0.860     0.151     1.392     1.848
    23   1 H        0.926     0.036     2.499     2.472
    24   1 H        0.860     0.152     1.387     1.845

Wiberg/Mayer (AO) data.
largest (>0.10) Wiberg bond orders for each atom

     #   Z sym  total        # sym  WBO       # sym  WBO       # sym  WBO
 ---------------------------------------------------------------------------
     1   6 C    3.964 --    11 C    1.381     7 C    1.375     2 N    1.042
                             8 C    0.101
     2   7 N    3.481 --     3 C    1.169     1 C    1.042     5 C    0.988
                             6 O    0.159
     3   6 C    3.941 --     6 O    1.709     2 N    1.169     4 C    0.959
     4   6 C    3.991 --    15 N    1.039     3 C    0.959    16 H    0.954
                            17 H    0.951
     5   6 C    3.968 --     2 N    0.988    13 H    0.982    12 H    0.978
                            14 H    0.975
     6   8 O    2.013 --     3 C    1.709     2 N    0.159
     7   6 C    3.990 --     9 C    1.453     1 C    1.375    18 H    0.966
                            10 C    0.108
     8   6 C    3.985 --    10 C    1.437     9 C    1.432    23 H    0.971
                             1 C    0.101
     9   6 C    3.991 --     7 C    1.453     8 C    1.432    19 H    0.970
                            11 C    0.107
    10   6 C    3.991 --    11 C    1.447     8 C    1.437    20 H    0.971
                             7 C    0.108
    11   6 C    3.991 --    10 C    1.447     1 C    1.381    21 H    0.964
                             9 C    0.107
    12   1 H    0.995 --     5 C    0.978
    13   1 H    0.997 --     5 C    0.982
    14   1 H    0.996 --     5 C    0.975
    15   7 N    3.006 --     4 C    1.039    24 H    0.960    22 H    0.960
    16   1 H    0.997 --     4 C    0.954
    17   1 H    0.997 --     4 C    0.951
    18   1 H    0.998 --     7 C    0.966
    19   1 H    0.998 --     9 C    0.970
    20   1 H    0.998 --    10 C    0.971
    21   1 H    0.998 --    11 C    0.964
    22   1 H    0.977 --    15 N    0.960
    23   1 H    0.999 --     8 C    0.971
    24   1 H    0.977 --    15 N    0.960
 ---------------------------------------------------------------------------

molecular dipole:
                 x           y           z       tot (Debye)
 q only:       -0.907      -0.505      -0.485
   full:       -1.147      -0.489      -0.257       3.236

           -------------------------------------------------
          | TOTAL ENERGY              -35.283247577874 Eh   |
          | GRADIENT NORM               0.000968621955 Eh/α |
          | HOMO-LUMO GAP               3.589738546563 eV   |
           -------------------------------------------------

 * finished run on 2023/11/18 at 08:27:50.821
