                               Psi4 1.6 release

  ==> Input File <==

--------------------------------------------------------------------------
molecule {
0 1
 C   -0.780356   -0.274807    0.183717
 N    0.298482   -0.449264    1.068211
 C    1.446687    0.389529    0.895831
 C    2.612380   -0.267592    0.184148
 C    0.031653   -0.696291    2.477002
 O    1.526258    1.478678    1.396293
 C   -2.089896   -0.086072    0.625012
 C   -2.892743   -0.025116   -1.641246
 C   -3.129589    0.027327   -0.280076
 C   -1.593168   -0.188257   -2.089924
 C   -0.550809   -0.313764   -1.193228
 H    0.837334   -1.317997    2.870480
 H   -0.912752   -1.221001    2.582608
 H   -0.017291    0.229286    3.062026
 N    3.801812    0.557117    0.093600
 H    2.332391   -0.593821   -0.820794
 H    2.853961   -1.181133    0.740050
 H   -2.312260   -0.004406    1.676984
 H   -4.134630    0.171175    0.089295
 H   -1.386348   -0.223847   -3.149504
 H    0.450564   -0.446850   -1.569997
 H    3.547168    1.445738   -0.335225
 H   -3.707028    0.067196   -2.343364
 H    4.078167    0.831171    1.035300
}
memory 20GB
set_num_threads(5)
psi4_io.set_default_path("/scratch/liuchw/Psi4-3_25_Index_0_GrowFragment_3-farH_in17")
set freeze_core True
E, wfn = energy('wb97x-d/6-311+G*',return_wfn=True)
oeprop(wfn,"WIBERG_LOWDIN_INDICES")
clean()
--------------------------------------------------------------------------

    Molecular point group: c1

    Geometry (in Angstrom), charge = 0, multiplicity = 1:

       Center              X                  Y                   Z               Mass
    ------------   -----------------  -----------------  -----------------  -----------------
         C           -0.781093498911    -0.309415214642    -0.013761548433    12.000000000000
         N            0.297744501089    -0.483872214642     0.870732451567    14.003074004430
         C            1.445949501089     0.354920785358     0.698352451567    12.000000000000
         C            2.611642501089    -0.302200214642    -0.013330548433    12.000000000000
         C            0.030915501089    -0.730899214642     2.279523451567    12.000000000000
         O            1.525520501089     1.444069785358     1.198814451567    15.994914619570
         C           -2.090633498911    -0.120680214642     0.427533451567    12.000000000000
         C           -2.893480498911    -0.059724214642    -1.838724548433    12.000000000000
         C           -3.130326498911    -0.007281214642    -0.477554548433    12.000000000000
         C           -1.593905498911    -0.222865214642    -2.287402548433    12.000000000000
         C           -0.551546498911    -0.348372214642    -1.390706548433    12.000000000000
         H            0.836596501089    -1.352605214642     2.673001451567     1.007825032230
         H           -0.913489498911    -1.255609214642     2.385129451567     1.007825032230
         H           -0.018028498911     0.194677785358     2.864547451567     1.007825032230
         N            3.801074501089     0.522508785358    -0.103878548433    14.003074004430
         H            2.331653501089    -0.628429214642    -1.018272548433     1.007825032230
         H            2.853223501089    -1.215741214642     0.542571451567     1.007825032230
         H           -2.312997498911    -0.039014214642     1.479505451567     1.007825032230
         H           -4.135367498911     0.136566785358    -0.108183548433     1.007825032230
         H           -1.387085498911    -0.258455214642    -3.346982548433     1.007825032230
         H            0.449826501089    -0.481458214642    -1.767475548433     1.007825032230
         H            3.546430501089     1.411129785358    -0.532703548433     1.007825032230
         H           -3.707765498911     0.032587785358    -2.540842548433     1.007825032230
         H            4.077429501089     0.796562785358     0.837821451567     1.007825032230

  Charge       = 0
  Multiplicity = 1
  Basis Set: 6-311+G*
    Blend: 6-311+G*
  Basis Set: (6-311+G* AUX)
    Blend: HEAVY-AUG-CC-PVTZ-JKFIT

    Orbital Energies [Eh]
    ---------------------

    Doubly Occupied:

       1A    -19.262785     2A    -14.456393     3A    -14.421166
       4A    -10.413848     5A    -10.339028     6A    -10.329201
       7A    -10.318940     8A    -10.292023     9A    -10.291749
      10A    -10.289245    11A    -10.288795    12A    -10.283648
      13A     -1.187742    14A     -1.057499    15A     -1.001291
      16A     -0.961792    17A     -0.861575    18A     -0.857005
      19A     -0.831212    20A     -0.784414    21A     -0.720574
      22A     -0.706342    23A     -0.660237    24A     -0.626695
      25A     -0.606877    26A     -0.596932    27A     -0.576511
      28A     -0.572738    29A     -0.548118    30A     -0.542155
      31A     -0.522876    32A     -0.516108    33A     -0.510040
      34A     -0.496697    35A     -0.487781    36A     -0.471135
      37A     -0.459608    38A     -0.445947    39A     -0.434331
      40A     -0.386671    41A     -0.380262    42A     -0.340093
      43A     -0.338351    44A     -0.291390

  @DF-RKS Final Energy:  -534.83460023711791

   => Energetics <=

    Nuclear Repulsion Energy =            685.5725472581832491
    One-Electron Energy =               -2083.8391748567910327
    Two-Electron Energy =                 915.6452803043983977
    DFT Exchange-Correlation Energy =     -52.1986346232930103
    Empirical Dispersion Energy =          -0.0146183196154112
    VV10 Nonlocal Energy =                  0.0000000000000000
    Total Energy =                       -534.8346002371179111
 Dipole X            :         -1.9356620            1.5145250           -0.4211371
 Dipole Y            :          2.0182661           -2.4866432           -0.4683771
 Dipole Z            :         -1.1447866            1.3798473            0.2350607
 Magnitude           :                                                    0.6722998
*** Psi4 exiting successfully. Buy a developer a beer!
