                               Psi4 1.6 release

  ==> Input File <==

--------------------------------------------------------------------------
molecule {
0 1
 C   -0.781159   -0.347109   -0.093190
 N    0.432700   -0.678427    0.560639
 C    1.584383   -0.025829    0.202969
 C    2.611620    0.207812    1.311808
 C    0.332045   -1.352437    1.838210
 O    1.769947    0.437533   -0.903614
 C   -1.903552    0.011032    0.647640
 C   -3.152364    0.333478   -1.378656
 C   -3.080806    0.345193    0.003544
 C   -2.035794   -0.019559   -2.116377
 C   -0.856820   -0.366993   -1.482084
 H    1.180678   -2.024434    1.963435
 H   -0.579492   -1.947650    1.842100
 H    0.307716   -0.662107    2.687312
 N    3.754690    0.983528    0.870649
 H    2.987596   -0.735351    1.722560
 H    2.130771    0.741121    2.138803
 H   -1.861301    0.046155    1.725599
 H   -3.944774    0.623688    0.589117
 H   -2.082483   -0.034133   -3.195019
 H    0.009786   -0.643885   -2.058091
 H    4.140367    0.538525    0.039186
 H   -4.073099    0.598700   -1.876110
 H    3.419335    1.878149    0.516766
}
memory 20GB
set_num_threads(5)
psi4_io.set_default_path("/scratch/liuchw/Psi4-3_25_Index_0_GrowFragment_3-farH_in17")
set freeze_core True
E, wfn = energy('wb97x-d/6-311+G*',return_wfn=True)
oeprop(wfn,"WIBERG_LOWDIN_INDICES")
clean()
--------------------------------------------------------------------------

    Molecular point group: c1

    Geometry (in Angstrom), charge = 0, multiplicity = 1:

       Center              X                  Y                   Z               Mass
    ------------   -----------------  -----------------  -----------------  -----------------
         C           -0.788502393664    -0.317027654640    -0.086723791327    12.000000000000
         N            0.425356606336    -0.648345654640     0.567105208673    14.003074004430
         C            1.577039606336     0.004252345360     0.209435208673    12.000000000000
         C            2.604276606336     0.237893345360     1.318274208673    12.000000000000
         C            0.324701606336    -1.322355654640     1.844676208673    12.000000000000
         O            1.762603606336     0.467614345360    -0.897147791327    15.994914619570
         C           -1.910895393664     0.041113345360     0.654106208673    12.000000000000
         C           -3.159707393664     0.363559345360    -1.372189791327    12.000000000000
         C           -3.088149393664     0.375274345360     0.010010208673    12.000000000000
         C           -2.043137393664     0.010522345360    -2.109910791327    12.000000000000
         C           -0.864163393664    -0.336911654640    -1.475617791327    12.000000000000
         H            1.173334606336    -1.994352654640     1.969901208673     1.007825032230
         H           -0.586835393664    -1.917568654640     1.848566208673     1.007825032230
         H            0.300372606336    -0.632025654640     2.693778208673     1.007825032230
         N            3.747346606336     1.013609345360     0.877115208673    14.003074004430
         H            2.980252606336    -0.705269654640     1.729026208673     1.007825032230
         H            2.123427606336     0.771202345360     2.145269208673     1.007825032230
         H           -1.868644393664     0.076236345360     1.732065208673     1.007825032230
         H           -3.952117393664     0.653769345360     0.595583208673     1.007825032230
         H           -2.089826393664    -0.004051654640    -3.188552791327     1.007825032230
         H            0.002442606336    -0.613803654640    -2.051624791327     1.007825032230
         H            4.133023606336     0.568606345360     0.045652208673     1.007825032230
         H           -4.080442393664     0.628781345360    -1.869643791327     1.007825032230
         H            3.411991606336     1.908230345360     0.523232208673     1.007825032230

  Charge       = 0
  Multiplicity = 1
  Basis Set: 6-311+G*
    Blend: 6-311+G*
  Basis Set: (6-311+G* AUX)
    Blend: HEAVY-AUG-CC-PVTZ-JKFIT

    Orbital Energies [Eh]
    ---------------------

    Doubly Occupied:

       1A    -19.223492     2A    -14.477483     3A    -14.413098
       4A    -10.393884     5A    -10.334791     6A    -10.331419
       7A    -10.323594     8A    -10.294197     9A    -10.292403
      10A    -10.288905    11A    -10.287106    12A    -10.285009
      13A     -1.160935    14A     -1.066061    15A     -0.992662
      16A     -0.964436    17A     -0.864621    18A     -0.858464
      19A     -0.824642    20A     -0.795050    21A     -0.722185
      22A     -0.708809    23A     -0.658363    24A     -0.616692
      25A     -0.603606    26A     -0.600466    27A     -0.579529
      28A     -0.567948    29A     -0.545830    30A     -0.538463
      31A     -0.518247    32A     -0.513669    33A     -0.502816
      34A     -0.499605    35A     -0.490117    36A     -0.468080
      37A     -0.452340    38A     -0.447401    39A     -0.436482
      40A     -0.373375    41A     -0.357777    42A     -0.338084
      43A     -0.332549    44A     -0.306747

  @DF-RKS Final Energy:  -534.85542165374886

   => Energetics <=

    Nuclear Repulsion Energy =            687.8247774477937355
    One-Electron Energy =               -2088.6070279547880091
    Two-Electron Energy =                 918.1577223483259331
    DFT Exchange-Correlation Energy =     -52.2162984593934993
    Empirical Dispersion Energy =          -0.0145950356869682
    VV10 Nonlocal Energy =                  0.0000000000000000
    Total Energy =                       -534.8554216537489765
 Dipole X            :         -2.2506176            1.4465955           -0.8040221
 Dipole Y            :          0.5931682           -1.1802561           -0.5870879
 Dipole Z            :         -5.0116357            5.7787303            0.7670945
 Magnitude           :                                                    1.2568046
*** Psi4 exiting successfully. Buy a developer a beer!
