                               Psi4 1.6 release

  ==> Input File <==

--------------------------------------------------------------------------
molecule {
0 1
 C   -0.839781   -0.096777    0.062319
 N    0.325548   -0.244616    0.862678
 C    1.459807    0.417642    0.501082
 C    2.799142   -0.127315    1.001996
 C    0.224174   -1.171107    1.970125
 O    1.436862    1.354564   -0.273906
 C   -2.058364    0.220352    0.649542
 C   -3.130423    0.082974   -1.492498
 C   -3.198395    0.309379   -0.128625
 C   -1.916416   -0.236064   -2.077161
 C   -0.774159   -0.335897   -1.304439
 H    1.183278   -1.640783    2.171781
 H   -0.486139   -1.956981    1.711844
 H   -0.116942   -0.666293    2.878071
 N    3.925437    0.708650    0.629005
 H    2.956195   -1.125098    0.575761
 H    2.822731   -0.238612    2.090190
 H   -2.110805    0.406443    1.711571
 H   -4.141874    0.561193    0.332507
 H   -1.859070   -0.417371   -3.140057
 H    0.173754   -0.582540   -1.757429
 H    3.857441    0.902902   -0.369439
 H   -4.021027    0.155576   -2.098450
 H    3.799018    1.626779    1.050726
}
memory 20GB
set_num_threads(5)
psi4_io.set_default_path("/scratch/liuchw/Psi4-3_25_Index_0_GrowFragment_3-farH_in17")
set freeze_core True
E, wfn = energy('wb97x-d/6-311+G*',return_wfn=True)
oeprop(wfn,"WIBERG_LOWDIN_INDICES")
clean()
--------------------------------------------------------------------------

    Molecular point group: c1

    Geometry (in Angstrom), charge = 0, multiplicity = 1:

       Center              X                  Y                   Z               Mass
    ------------   -----------------  -----------------  -----------------  -----------------
         C           -0.811559629217    -0.181631641026    -0.010154684894    12.000000000000
         N            0.353769370783    -0.329470641026     0.790204315106    14.003074004430
         C            1.488028370783     0.332787358974     0.428608315106    12.000000000000
         C            2.827363370783    -0.212169641026     0.929522315106    12.000000000000
         C            0.252395370783    -1.255961641026     1.897651315106    12.000000000000
         O            1.465083370783     1.269709358974    -0.346379684894    15.994914619570
         C           -2.030142629217     0.135497358974     0.577068315106    12.000000000000
         C           -3.102201629217    -0.001880641026    -1.564971684894    12.000000000000
         C           -3.170173629217     0.224524358974    -0.201098684894    12.000000000000
         C           -1.888194629217    -0.320918641026    -2.149634684894    12.000000000000
         C           -0.745937629217    -0.420751641026    -1.376912684894    12.000000000000
         H            1.211499370783    -1.725637641026     2.099307315106     1.007825032230
         H           -0.457917629217    -2.041835641026     1.639370315106     1.007825032230
         H           -0.088720629217    -0.751147641026     2.805597315106     1.007825032230
         N            3.953658370783     0.623795358974     0.556531315106    14.003074004430
         H            2.984416370783    -1.209952641026     0.503287315106     1.007825032230
         H            2.850952370783    -0.323466641026     2.017716315106     1.007825032230
         H           -2.082583629217     0.321588358974     1.639097315106     1.007825032230
         H           -4.113652629217     0.476338358974     0.260033315106     1.007825032230
         H           -1.830848629217    -0.502225641026    -3.212530684894     1.007825032230
         H            0.201975370783    -0.667394641026    -1.829902684894     1.007825032230
         H            3.885662370783     0.818047358974    -0.441912684894     1.007825032230
         H           -3.992805629217     0.070721358974    -2.170923684894     1.007825032230
         H            3.827239370783     1.541924358974     0.978252315106     1.007825032230

  Charge       = 0
  Multiplicity = 1
  Basis Set: 6-311+G*
    Blend: 6-311+G*
  Basis Set: (6-311+G* AUX)
    Blend: HEAVY-AUG-CC-PVTZ-JKFIT

    Orbital Energies [Eh]
    ---------------------

    Doubly Occupied:

       1A    -19.217329     2A    -14.473664     3A    -14.411265
       4A    -10.389702     5A    -10.333382     6A    -10.330495
       7A    -10.321735     8A    -10.294193     9A    -10.293506
      10A    -10.292508    11A    -10.291697    12A    -10.290150
      13A     -1.156189    14A     -1.061264    15A     -0.990485
      16A     -0.965957    17A     -0.863841    18A     -0.860504
      19A     -0.826007    20A     -0.793150    21A     -0.721905
      22A     -0.712361    23A     -0.658601    24A     -0.615210
      25A     -0.605867    26A     -0.595519    27A     -0.576370
      28A     -0.571658    29A     -0.544060    30A     -0.536731
      31A     -0.519630    32A     -0.518037    33A     -0.502665
      34A     -0.493036    35A     -0.489954    36A     -0.467872
      37A     -0.450435    38A     -0.446624    39A     -0.438870
      40A     -0.369155    41A     -0.351740    42A     -0.338400
      43A     -0.331528    44A     -0.310720

  @DF-RKS Final Energy:  -534.85509016103879

   => Energetics <=

    Nuclear Repulsion Energy =            686.5586362482324603
    One-Electron Energy =               -2086.1310300483942228
    Two-Electron Energy =                 916.9452365402644318
    DFT Exchange-Correlation Energy =     -52.2134399891151375
    Empirical Dispersion Energy =          -0.0144929120262895
    VV10 Nonlocal Energy =                  0.0000000000000000
    Total Energy =                       -534.8550901610387882
 Dipole X            :         -3.0750661            2.2399710           -0.8350950
 Dipole Y            :          2.8336442           -3.7381077           -0.9044635
 Dipole Z            :         -3.3703291            4.0137230            0.6433939
 Magnitude           :                                                    1.3890261
*** Psi4 exiting successfully. Buy a developer a beer!
