                               Psi4 1.6 release

  ==> Input File <==

--------------------------------------------------------------------------
molecule {
0 1
 C   -0.738423   -0.448864   -0.099164
 N    0.459745   -0.902978    0.499900
 C    1.641625   -0.258046    0.164513
 C    2.408381    0.418833    1.301054
 C    0.361135   -1.531288    1.804010
 O    1.987246   -0.091076   -0.983865
 C   -1.836163   -0.084213    0.675481
 C   -3.068600    0.482003   -1.309862
 C   -2.992061    0.371982    0.067062
 C   -1.973635    0.130946   -2.081268
 C   -0.818786   -0.339318   -1.485505
 H    1.147926   -2.279510    1.895511
 H   -0.608087   -2.019517    1.880081
 H    0.446621   -0.824140    2.636308
 N    3.578506    1.145612    0.850533
 H    2.734523   -0.291760    2.067797
 H    1.727553    1.121540    1.794844
 H   -1.795899   -0.134104    1.752649
 H   -3.835781    0.652262    0.680952
 H   -2.020152    0.213357   -3.156919
 H    0.033264   -0.611508   -2.085939
 H    4.160312    0.511209    0.305956
 H   -3.973295    0.841197   -1.776583
 H    3.284037    1.834381    0.159651
}
memory 20GB
set_num_threads(5)
psi4_io.set_default_path("/scratch/liuchw/Psi4-3_25_Index_0_GrowFragment_3-farH_in17")
set freeze_core True
E, wfn = energy('wb97x-d/6-311+G*',return_wfn=True)
oeprop(wfn,"WIBERG_LOWDIN_INDICES")
clean()
--------------------------------------------------------------------------

    Molecular point group: c1

    Geometry (in Angstrom), charge = 0, multiplicity = 1:

       Center              X                  Y                   Z               Mass
    ------------   -----------------  -----------------  -----------------  -----------------
         C           -0.771614977003    -0.362639390494    -0.085828393980    12.000000000000
         N            0.426553022997    -0.816753390494     0.513235606020    14.003074004430
         C            1.608433022997    -0.171821390494     0.177848606020    12.000000000000
         C            2.375189022997     0.505057609506     1.314389606020    12.000000000000
         C            0.327943022997    -1.445063390494     1.817345606020    12.000000000000
         O            1.954054022997    -0.004851390494    -0.970529393980    15.994914619570
         C           -1.869354977003     0.002011609506     0.688816606020    12.000000000000
         C           -3.101791977003     0.568227609506    -1.296526393980    12.000000000000
         C           -3.025252977003     0.458206609506     0.080397606020    12.000000000000
         C           -2.006826977003     0.217170609506    -2.067932393980    12.000000000000
         C           -0.851977977003    -0.253093390494    -1.472169393980    12.000000000000
         H            1.114734022997    -2.193285390494     1.908846606020     1.007825032230
         H           -0.641278977003    -1.933292390494     1.893416606020     1.007825032230
         H            0.413429022997    -0.737915390494     2.649643606020     1.007825032230
         N            3.545314022997     1.231836609506     0.863868606020    14.003074004430
         H            2.701331022997    -0.205535390494     2.081132606020     1.007825032230
         H            1.694361022997     1.207764609506     1.808179606020     1.007825032230
         H           -1.829090977003    -0.047879390494     1.765984606020     1.007825032230
         H           -3.868972977003     0.738486609506     0.694287606020     1.007825032230
         H           -2.053343977003     0.299581609506    -3.143583393980     1.007825032230
         H            0.000072022997    -0.525283390494    -2.072603393980     1.007825032230
         H            4.127120022997     0.597433609506     0.319291606020     1.007825032230
         H           -4.006486977003     0.927421609506    -1.763247393980     1.007825032230
         H            3.250845022997     1.920605609506     0.172986606020     1.007825032230

  Charge       = 0
  Multiplicity = 1
  Basis Set: 6-311+G*
    Blend: 6-311+G*
  Basis Set: (6-311+G* AUX)
    Blend: HEAVY-AUG-CC-PVTZ-JKFIT

    Orbital Energies [Eh]
    ---------------------

    Doubly Occupied:

       1A    -19.237278     2A    -14.470540     3A    -14.416101
       4A    -10.400865     5A    -10.336677     6A    -10.328733
       7A    -10.326348     8A    -10.292984     9A    -10.291990
      10A    -10.288499    11A    -10.285214    12A    -10.282108
      13A     -1.169102    14A     -1.065346    15A     -0.995901
      16A     -0.963080    17A     -0.862670    18A     -0.857537
      19A     -0.823218    20A     -0.794779    21A     -0.722134
      22A     -0.707315    23A     -0.658344    24A     -0.617679
      25A     -0.606059    26A     -0.600121    27A     -0.579113
      28A     -0.568299    29A     -0.547917    30A     -0.539779
      31A     -0.517804    32A     -0.512549    33A     -0.506320
      34A     -0.499342    35A     -0.492667    36A     -0.467408
      37A     -0.451912    38A     -0.448434    39A     -0.434682
      40A     -0.381233    41A     -0.360435    42A     -0.341262
      43A     -0.335900    44A     -0.299387

  @DF-RKS Final Energy:  -534.84648546233029

   => Energetics <=

    Nuclear Repulsion Energy =            688.8533038463068578
    One-Electron Energy =               -2090.5821000076043674
    Two-Electron Energy =                 919.1079535315141129
    DFT Exchange-Correlation Energy =     -52.2108999102923335
    Empirical Dispersion Energy =          -0.0147429222547351
    VV10 Nonlocal Energy =                  0.0000000000000000
    Total Energy =                       -534.8464854623304063
 Dipole X            :         -1.5190208            0.8441237           -0.6748971
 Dipole Y            :         -0.4354297            0.0438655           -0.3915641
 Dipole Z            :         -5.1283873            5.9108334            0.7824461
 Magnitude           :                                                    1.1050025
*** Psi4 exiting successfully. Buy a developer a beer!
