                               Psi4 1.6 release

  ==> Input File <==

--------------------------------------------------------------------------
molecule {
0 1
 C   -0.852552   -0.000673    0.195049
 N    0.251720   -0.061746    1.095293
 C    1.406468    0.573315    0.712590
 C    2.736210   -0.186114    0.762384
 C    0.200207   -1.188522    2.009087
 O    1.362976    1.667697    0.185733
 C   -2.106031    0.374119    0.660639
 C   -3.027051    0.004889   -1.523202
 C   -3.189300    0.376717   -0.199061
 C   -1.778013   -0.372259   -1.985671
 C   -0.691733   -0.385205   -1.128887
 H    1.193716   -1.502974    2.309684
 H   -0.317920   -2.031611    1.547090
 H   -0.358104   -0.901143    2.905058
 N    3.876108    0.640630    0.415441
 H    2.669072   -1.007902    0.039325
 H    2.946143   -0.638341    1.735516
 H   -2.222361    0.671480    1.691654
 H   -4.161472    0.675031    0.164341
 H   -1.647881   -0.665151   -3.016930
 H    0.284634   -0.676280   -1.488168
 H    3.649270    1.145544   -0.441121
 H   -3.872706    0.010861   -2.194367
 H    3.958591    1.384637    1.105719
}
memory 20GB
set_num_threads(5)
psi4_io.set_default_path("/scratch/liuchw/Psi4-3_25_Index_0_GrowFragment_3-farH_in17")
set freeze_core True
E, wfn = energy('wb97x-d/6-311+G*',return_wfn=True)
oeprop(wfn,"WIBERG_LOWDIN_INDICES")
clean()
--------------------------------------------------------------------------

    Molecular point group: c1

    Geometry (in Angstrom), charge = 0, multiplicity = 1:

       Center              X                  Y                   Z               Mass
    ------------   -----------------  -----------------  -----------------  -----------------
         C           -0.816713023414    -0.132136593334     0.057611872139    12.000000000000
         N            0.287558976586    -0.193209593334     0.957855872139    14.003074004430
         C            1.442306976586     0.441851406666     0.575152872139    12.000000000000
         C            2.772048976586    -0.317577593334     0.624946872139    12.000000000000
         C            0.236045976586    -1.319985593334     1.871649872139    12.000000000000
         O            1.398814976586     1.536233406666     0.048295872139    15.994914619570
         C           -2.070192023414     0.242655406666     0.523201872139    12.000000000000
         C           -2.991212023414    -0.126574593334    -1.660639127861    12.000000000000
         C           -3.153461023414     0.245253406666    -0.336498127861    12.000000000000
         C           -1.742174023414    -0.503722593334    -2.123108127861    12.000000000000
         C           -0.655894023414    -0.516668593334    -1.266324127861    12.000000000000
         H            1.229554976586    -1.634437593334     2.172246872139     1.007825032230
         H           -0.282081023414    -2.163074593334     1.409652872139     1.007825032230
         H           -0.322265023414    -1.032606593334     2.767620872139     1.007825032230
         N            3.911946976586     0.509166406666     0.278003872139    14.003074004430
         H            2.704910976586    -1.139365593334    -0.098112127861     1.007825032230
         H            2.981981976586    -0.769804593334     1.598078872139     1.007825032230
         H           -2.186522023414     0.540016406666     1.554216872139     1.007825032230
         H           -4.125633023414     0.543567406666     0.026903872139     1.007825032230
         H           -1.612042023414    -0.796614593334    -3.154367127861     1.007825032230
         H            0.320472976586    -0.807743593334    -1.625605127861     1.007825032230
         H            3.685108976586     1.014080406666    -0.578558127861     1.007825032230
         H           -3.836867023414    -0.120602593334    -2.331804127861     1.007825032230
         H            3.994429976586     1.253173406666     0.968281872139     1.007825032230

  Charge       = 0
  Multiplicity = 1
  Basis Set: 6-311+G*
    Blend: 6-311+G*
  Basis Set: (6-311+G* AUX)
    Blend: HEAVY-AUG-CC-PVTZ-JKFIT

    Orbital Energies [Eh]
    ---------------------

    Doubly Occupied:

       1A    -19.222272     2A    -14.466097     3A    -14.412343
       4A    -10.391513     5A    -10.334685     6A    -10.326263
       7A    -10.323765     8A    -10.296468     9A    -10.295743
      10A    -10.295559    11A    -10.294076    12A    -10.293091
      13A     -1.157479    14A     -1.058204    15A     -0.991735
      16A     -0.967323    17A     -0.862671    18A     -0.862156
      19A     -0.822365    20A     -0.792556    21A     -0.722350
      22A     -0.714839    23A     -0.659095    24A     -0.615633
      25A     -0.607157    26A     -0.594039    27A     -0.575858
      28A     -0.571767    29A     -0.544910    30A     -0.536490
      31A     -0.521369    32A     -0.518437    33A     -0.504035
      34A     -0.495304    35A     -0.489120    36A     -0.467109
      37A     -0.452799    38A     -0.446181    39A     -0.438471
      40A     -0.364039    41A     -0.352193    42A     -0.341788
      43A     -0.332758    44A     -0.315027

  @DF-RKS Final Energy:  -534.84561633353098

   => Energetics <=

    Nuclear Repulsion Energy =            687.4660397229971522
    One-Electron Energy =               -2087.8849224623481859
    Two-Electron Energy =                 917.7936501192892820
    DFT Exchange-Correlation Energy =     -52.2056693205714311
    Empirical Dispersion Energy =          -0.0147143928978732
    VV10 Nonlocal Energy =                  0.0000000000000000
    Total Energy =                       -534.8456163335309839
 Dipole X            :         -3.1668435            2.3860550           -0.7807885
 Dipole Y            :          3.7675275           -4.7872039           -1.0196764
 Dipole Z            :         -2.0684129            2.5358306            0.4674177
 Magnitude           :                                                    1.3666930
*** Psi4 exiting successfully. Buy a developer a beer!
