                               Psi4 1.6 release

  ==> Input File <==

--------------------------------------------------------------------------
molecule {
0 1
 C   -0.693693   -0.279445    0.268881
 N    0.419038   -0.756995    1.042486
 C    1.664942   -0.341640    0.530366
 C    2.120625    0.975118    1.133485
 C    0.316440   -2.207211    1.235034
 O    2.407105   -1.044321   -0.113820
 C   -1.731744    0.369769    0.921682
 C   -2.896802    0.594560   -1.163672
 C   -2.832707    0.802993    0.203886
 C   -1.858214   -0.049749   -1.814553
 C   -0.758146   -0.492530   -1.101867
 H    1.311924   -2.628029    1.352958
 H   -0.192586   -2.709649    0.408919
 H   -0.259146   -2.376737    2.146569
 N    3.352995    1.506431    0.583090
 H    2.273901    0.788605    2.202825
 H    1.334333    1.734155    1.071069
 H   -1.666385    0.527106    1.987067
 H   -3.641757    1.305468    0.712949
 H   -1.904227   -0.211404   -2.881399
 H    0.055265   -0.996457   -1.604502
 H    4.035321    0.748744    0.562107
 H   -3.755840    0.934186   -1.722615
 H    3.209350    1.714034   -0.403751
}
memory 20GB
set_num_threads(5)
psi4_io.set_default_path("/scratch/liuchw/Psi4-3_25_Index_0_GrowFragment_3-farH_in17")
set freeze_core True
E, wfn = energy('wb97x-d/6-311+G*',return_wfn=True)
oeprop(wfn,"WIBERG_LOWDIN_INDICES")
clean()
--------------------------------------------------------------------------

    Molecular point group: c1

    Geometry (in Angstrom), charge = 0, multiplicity = 1:

       Center              X                  Y                   Z               Mass
    ------------   -----------------  -----------------  -----------------  -----------------
         C           -0.767408379206    -0.188484434836     0.102126296502    12.000000000000
         N            0.345322620794    -0.666034434836     0.875731296502    14.003074004430
         C            1.591226620794    -0.250679434836     0.363611296502    12.000000000000
         C            2.046909620794     1.066078565164     0.966730296502    12.000000000000
         C            0.242724620794    -2.116250434836     1.068279296502    12.000000000000
         O            2.333389620794    -0.953360434836    -0.280574703498    15.994914619570
         C           -1.805459379206     0.460729565164     0.754927296502    12.000000000000
         C           -2.970517379206     0.685520565164    -1.330426703498    12.000000000000
         C           -2.906422379206     0.893953565164     0.037131296502    12.000000000000
         C           -1.931929379206     0.041211565164    -1.981307703498    12.000000000000
         C           -0.831861379206    -0.401569434836    -1.268621703498    12.000000000000
         H            1.238208620794    -2.537068434836     1.186203296502     1.007825032230
         H           -0.266301379206    -2.618688434836     0.242164296502     1.007825032230
         H           -0.332861379206    -2.285776434836     1.979814296502     1.007825032230
         N            3.279279620794     1.597391565164     0.416335296502    14.003074004430
         H            2.200185620794     0.879565565164     2.036070296502     1.007825032230
         H            1.260617620794     1.825115565164     0.904314296502     1.007825032230
         H           -1.740100379206     0.618066565164     1.820312296502     1.007825032230
         H           -3.715472379206     1.396428565164     0.546194296502     1.007825032230
         H           -1.977942379206    -0.120443434836    -3.048153703498     1.007825032230
         H           -0.018450379206    -0.905496434836    -1.771256703498     1.007825032230
         H            3.961605620794     0.839704565164     0.395352296502     1.007825032230
         H           -3.829555379206     1.025146565164    -1.889369703498     1.007825032230
         H            3.135634620794     1.804994565164    -0.570505703498     1.007825032230

  Charge       = 0
  Multiplicity = 1
  Basis Set: 6-311+G*
    Blend: 6-311+G*
  Basis Set: (6-311+G* AUX)
    Blend: HEAVY-AUG-CC-PVTZ-JKFIT

    Orbital Energies [Eh]
    ---------------------

    Doubly Occupied:

       1A    -19.246454     2A    -14.454155     3A    -14.412407
       4A    -10.398458     5A    -10.336601     6A    -10.317467
       7A    -10.308495     8A    -10.300353     9A    -10.299729
      10A    -10.298898    11A    -10.298290    12A    -10.297632
      13A     -1.172927    14A     -1.054908    15A     -0.991379
      16A     -0.969268    17A     -0.865858    18A     -0.858434
      19A     -0.828837    20A     -0.769658    21A     -0.724472
      22A     -0.713654    23A     -0.656784    24A     -0.618934
      25A     -0.601140    26A     -0.593484    27A     -0.574009
      28A     -0.564739    29A     -0.547746    30A     -0.541186
      31A     -0.524655    32A     -0.512202    33A     -0.503649
      34A     -0.489659    35A     -0.481680    36A     -0.468350
      37A     -0.451941    38A     -0.445467    39A     -0.444060
      40A     -0.380819    41A     -0.347153    42A     -0.343538
      43A     -0.337443    44A     -0.325970

  @DF-RKS Final Energy:  -534.84104275295851

   => Energetics <=

    Nuclear Repulsion Energy =            689.3308203884190561
    One-Electron Energy =               -2091.5594715721827015
    Two-Electron Energy =                 919.5988006649606632
    DFT Exchange-Correlation Energy =     -52.1966294692741215
    Empirical Dispersion Energy =          -0.0145627648812338
    VV10 Nonlocal Energy =                  0.0000000000000000
    Total Energy =                       -534.8410427529585149
 Dipole X            :         -1.0180948           -0.0784678           -1.0965626
 Dipole Y            :         -0.0648167           -0.0808316           -0.1456483
 Dipole Z            :         -1.7528360            1.7115365           -0.0412996
 Magnitude           :                                                    1.1069637
*** Psi4 exiting successfully. Buy a developer a beer!
