                               Psi4 1.6 release

  ==> Input File <==

--------------------------------------------------------------------------
molecule {
0 1
N 2.077115682868 -0.433338023487 -0.064858282754
C 0.746192281613 -0.150438337917 -0.010395602457
C -0.173591368335 -1.269453410915 -0.281188687113
C -1.299796199235 -1.085255901038 -1.095675670077
C 0.306802271471 1.100575274823 0.359305218399
C 0.095467474356 -2.539206177369 0.250253080192
H 2.693457963347 0.381257761331 0.00936934274
C -1.025215388283 1.592372047341 0.631415843203
N 0.420748872827 3.313801332929 0.778482881929
C 1.232740920614 2.233382738619 0.486455390867
C -0.914833086692 2.922875050345 0.889915791937
C -0.762311389415 -3.604118836514 -0.016142410443
C -2.15057277 -2.15598303707 -1.360999781174
C -1.885666287197 -3.416390358453 -0.822665638291
H 0.960022806469 -2.673378291661 0.895759617355
H -1.487847869554 -0.108069891367 -1.53208851631
H 0.791815226843 4.237882552445 0.955329986979
O 2.472743270541 2.268906941056 0.358373155075
H -0.556013329795 -4.582720260406 0.410047800945
H -3.01782032919 -2.00934245502 -1.999925674438
H -2.552569506206 -4.249111075645 -1.030735970145
H -1.936452463013 1.012270761886 0.675063887971
H -1.677094563213 3.643827091836 1.153355201095
H 2.367063021519 -1.192938228691 -0.667608123234
no_reorient
}
memory 20GB
set_num_threads(5)
psi4_io.set_default_path("/scratch/liuchw/Psi4-7_11_Index_0-farH_in17")
set freeze_core True
set PROPERTIES_ORIGIN ["COM"]
set cubeprop_tasks ['esp']
set basis 6-311G**
E, wfn = properties('mp2',properties=['dipole'],return_wfn=True)
cubeprop(wfn)
fchk(wfn, "7_11_Index_0-dma.fchk")
clean()
--------------------------------------------------------------------------

    Molecular point group: c1
  Charge       = 0
  Multiplicity = 1
  Basis Set: 6-311G**
    Blend: 6-311G**
  Basis Set: (6-311G** AUX)
    Blend: CC-PVTZ-JKFIT

    Orbital Energies [Eh]
    ---------------------

    Doubly Occupied:

       1A    -20.496935     2A    -15.583406     3A    -15.572165
       4A    -11.335997     5A    -11.315461     6A    -11.263003
       7A    -11.261127     8A    -11.254234     9A    -11.253761
      10A    -11.253204    11A    -11.250494    12A    -11.250129
      13A    -11.220386    14A    -11.214374    15A     -1.355135
      16A     -1.255375    17A     -1.244892    18A     -1.165774
      19A     -1.070190    20A     -1.037497    21A     -1.030410
      22A     -0.971764    23A     -0.896385    24A     -0.845798
      25A     -0.828749    26A     -0.790366    27A     -0.760962
      28A     -0.717591    29A     -0.693499    30A     -0.682593
      31A     -0.660694    32A     -0.641975    33A     -0.626101
      34A     -0.603883    35A     -0.591859    36A     -0.589381
      37A     -0.584557    38A     -0.576253    39A     -0.550649
      40A     -0.525707    41A     -0.515893    42A     -0.508659
      43A     -0.491938    44A     -0.457586    45A     -0.406460
      46A     -0.370623    47A     -0.351938    48A     -0.350856
      49A     -0.265018

  @DF-RHF Final Energy:  -606.27054573000441

   => Energetics <=

    Nuclear Repulsion Energy =            816.9059220658089089
    One-Electron Energy =               -2445.2695693491550628
    Two-Electron Energy =                1022.0931015533417394
    Total Energy =                       -606.2705457300044145
  Basis Set: (6-311G** AUX)
    Blend: CC-PVTZ-RI
    Molecular point group: c1

    Geometry (in Angstrom), charge = 0, multiplicity = 1:

       Center              X                  Y                   Z               Mass
    ------------   -----------------  -----------------  -----------------  -----------------
         N            2.076526110474    -0.404226496609    -0.080701691257    14.003074004430
         C            0.745602709219    -0.121326811039    -0.026239010960    12.000000000000
         C           -0.174180940729    -1.240341884037    -0.297032095616    12.000000000000
         C           -1.300385771629    -1.056144374160    -1.111519078580    12.000000000000
         C            0.306212699077     1.129686801701     0.343461809896    12.000000000000
         C            0.094877901962    -2.510094650491     0.234409671689    12.000000000000
         H            2.692868390953     0.410369288209    -0.006474065763     1.007825032230
         C           -1.025804960677     1.621483574219     0.615572434700    12.000000000000
         N            0.420159300433     3.342912859807     0.762639473426    14.003074004430
         C            1.232151348220     2.262494265497     0.470611982364    12.000000000000
         C           -0.915422659086     2.951986577223     0.874072383434    12.000000000000
         C           -0.762900961809    -3.575007309636    -0.031985818946    12.000000000000
         C           -2.151162342394    -2.126871510192    -1.376843189677    12.000000000000
         C           -1.886255859591    -3.387278831575    -0.838509046794    12.000000000000
         H            0.959433234075    -2.644266764783     0.879916208852     1.007825032230
         H           -1.488437441948    -0.078958364489    -1.547931924813     1.007825032230
         H            0.791225654449     4.266994079323     0.939486578476     1.007825032230
         O            2.472153698147     2.298018467934     0.342529746572    15.994914619570
         H           -0.556602902189    -4.553608733528     0.394204392442     1.007825032230
         H           -3.018409901584    -1.980230928142    -2.015769082941     1.007825032230
         H           -2.553159078600    -4.219999548767    -1.046579378648     1.007825032230
         H           -1.937042035407     1.041382288764     0.659220479468     1.007825032230
         H           -1.677684135607     3.672938618714     1.137511792592     1.007825032230
         H            2.366473449125    -1.163826701813    -0.683451531737     1.007825032230

  Basis Set: 6-311G**
    Blend: 6-311G**
  Basis Set: (6-311G** AUX)
    Blend: CC-PVTZ-JKFIT
	 Reference Energy          =    -606.2705457300044145 [Eh]
	 Singles Energy            =      -0.0000000000000000 [Eh]
	 Same-Spin Energy          =      -0.5536652389370370 [Eh]
	 Opposite-Spin Energy      =      -1.4958855126853221 [Eh]
	 Correlation Energy        =      -2.0495507516223590 [Eh]
	 Total Energy              =    -608.3200964816268197 [Eh]

	 ================> DF-SCS-MP2 Energies <==================
	-----------------------------------------------------------
	 SCS Same-Spin Scale       =       0.3333333333333333 [-]
	 SCS Opposite-Spin Scale   =       1.2000000000000000 [-]
	 SCS Same-Spin Energy      =      -0.1845550796456790 [Eh]
	 SCS Opposite-Spin Energy  =      -1.7950626152223865 [Eh]
	 SCS Correlation Energy    =      -1.9796176948680655 [Eh]
	 SCS Total Energy          =    -608.2501634248724258 [Eh]
	-----------------------------------------------------------

 Dipole X            :          3.3150347           -4.1402394           -0.8252047
 Dipole Y            :          4.3212580           -4.9184646           -0.5972066
 Dipole Z            :          0.9143613           -1.2095454           -0.2951840
 Magnitude           :                                                    1.0605433
  Basis Set: 6-311G**
    Blend: 6-311G**
*** Psi4 exiting successfully. Buy a developer a beer!
